V -t * -v 1.0a5 -a 0
A -t * -n 1 -p 0 -o 0x7fffffff -c 30 -a 1
A -t * -h 1 -m 1073741823 -s 0
n -t * -a 0 -s 0 -S UP -v circle -c black -i black
n -t * -a 1 -s 1 -S UP -v circle -c black -i black
n -t * -a 2 -s 2 -S UP -v circle -c black -i black
l -t * -s 0 -d 1 -S UP -r 100000000 -D 0.01 -c black
l -t * -s 1 -d 2 -S UP -r 1000000 -D 0.01 -c black
+ -t 1 -s 0 -d 1 -p cbr -e 500 -c 0 -i 0 -a 0 -x {0.0 2.0 0 ------- null}
- -t 1 -s 0 -d 1 -p cbr -e 500 -c 0 -i 0 -a 0 -x {0.0 2.0 0 ------- null}
h -t 1 -s 0 -d 1 -p cbr -e 500 -c 0 -i 0 -a 0 -x {0.0 2.0 -1 ------- null}
+ -t 1.005 -s 0 -d 1 -p cbr -e 500 -c 0 -i 1 -a 0 -x {0.0 2.0 1 ------- null}
- -t 1.005 -s 0 -d 1 -p cbr -e 500 -c 0 -i 1 -a 0 -x {0.0 2.0 1 ------- null}
h -t 1.005 -s 0 -d 1 -p cbr -e 500 -c 0 -i 1 -a 0 -x {0.0 2.0 -1 ------- null}
+ -t 1.01 -s 0 -d 1 -p cbr -e 500 -c 0 -i 2 -a 0 -x {0.0 2.0 2 ------- null}
- -t 1.01 -s 0 -d 1 -p cbr -e 500 -c 0 -i 2 -a 0 -x {0.0 2.0 2 ------- null}
h -t 1.01 -s 0 -d 1 -p cbr -e 500 -c 0 -i 2 -a 0 -x {0.0 2.0 -1 ------- null}
r -t 1.01004 -s 0 -d 1 -p cbr -e 500 -c 0 -i 0 -a 0 -x {0.0 2.0 0 ------- null}
+ -t 1.01004 -s 1 -d 2 -p cbr -e 500 -c 0 -i 0 -a 0 -x {0.0 2.0 0 ------- null}
- -t 1.01004 -s 1 -d 2 -p cbr -e 500 -c 0 -i 0 -a 0 -x {0.0 2.0 0 ------- null}
h -t 1.01004 -s 1 -d 2 -p cbr -e 500 -c 0 -i 0 -a 0 -x {0.0 2.0 -1 ------- null}
+ -t 1.015 -s 0 -d 1 -p cbr -e 500 -c 0 -i 3 -a 0 -x {0.0 2.0 3 ------- null}
- -t 1.015 -s 0 -d 1 -p cbr -e 500 -c 0 -i 3 -a 0 -x {0.0 2.0 3 ------- null}
h -t 1.015 -s 0 -d 1 -p cbr -e 500 -c 0 -i 3 -a 0 -x {0.0 2.0 -1 ------- null}
r -t 1.01504 -s 0 -d 1 -p cbr -e 500 -c 0 -i 1 -a 0 -x {0.0 2.0 1 ------- null}
+ -t 1.01504 -s 1 -d 2 -p cbr -e 500 -c 0 -i 1 -a 0 -x {0.0 2.0 1 ------- null}
- -t 1.01504 -s 1 -d 2 -p cbr -e 500 -c 0 -i 1 -a 0 -x {0.0 2.0 1 ------- null}
h -t 1.01504 -s 1 -d 2 -p cbr -e 500 -c 0 -i 1 -a 0 -x {0.0 2.0 -1 ------- null}
+ -t 1.02 -s 0 -d 1 -p cbr -e 500 -c 0 -i 4 -a 0 -x {0.0 2.0 4 ------- null}
- -t 1.02 -s 0 -d 1 -p cbr -e 500 -c 0 -i 4 -a 0 -x {0.0 2.0 4 ------- null}
h -t 1.02 -s 0 -d 1 -p cbr -e 500 -c 0 -i 4 -a 0 -x {0.0 2.0 -1 ------- null}
r -t 1.02004 -s 0 -d 1 -p cbr -e 500 -c 0 -i 2 -a 0 -x {0.0 2.0 2 ------- null}
+ -t 1.02004 -s 1 -d 2 -p cbr -e 500 -c 0 -i 2 -a 0 -x {0.0 2.0 2 ------- null}
- -t 1.02004 -s 1 -d 2 -p cbr -e 500 -c 0 -i 2 -a 0 -x {0.0 2.0 2 ------- null}
h -t 1.02004 -s 1 -d 2 -p cbr -e 500 -c 0 -i 2 -a 0 -x {0.0 2.0 -1 ------- null}
r -t 1.02404 -s 1 -d 2 -p cbr -e 500 -c 0 -i 0 -a 0 -x {0.0 2.0 0 ------- null}
+ -t 1.025 -s 0 -d 1 -p cbr -e 500 -c 0 -i 5 -a 0 -x {0.0 2.0 5 ------- null}
- -t 1.025 -s 0 -d 1 -p cbr -e 500 -c 0 -i 5 -a 0 -x {0.0 2.0 5 ------- null}
h -t 1.025 -s 0 -d 1 -p cbr -e 500 -c 0 -i 5 -a 0 -x {0.0 2.0 -1 ------- null}
r -t 1.02504 -s 0 -d 1 -p cbr -e 500 -c 0 -i 3 -a 0 -x {0.0 2.0 3 ------- null}
+ -t 1.02504 -s 1 -d 2 -p cbr -e 500 -c 0 -i 3 -a 0 -x {0.0 2.0 3 ------- null}
- -t 1.02504 -s 1 -d 2 -p cbr -e 500 -c 0 -i 3 -a 0 -x {0.0 2.0 3 ------- null}
h -t 1.02504 -s 1 -d 2 -p cbr -e 500 -c 0 -i 3 -a 0 -x {0.0 2.0 -1 ------- null}
r -t 1.02904 -s 1 -d 2 -p cbr -e 500 -c 0 -i 1 -a 0 -x {0.0 2.0 1 ------- null}
+ -t 1.03 -s 0 -d 1 -p cbr -e 500 -c 0 -i 6 -a 0 -x {0.0 2.0 6 ------- null}
- -t 1.03 -s 0 -d 1 -p cbr -e 500 -c 0 -i 6 -a 0 -x {0.0 2.0 6 ------- null}
h -t 1.03 -s 0 -d 1 -p cbr -e 500 -c 0 -i 6 -a 0 -x {0.0 2.0 -1 ------- null}
r -t 1.03004 -s 0 -d 1 -p cbr -e 500 -c 0 -i 4 -a 0 -x {0.0 2.0 4 ------- null}
+ -t 1.03004 -s 1 -d 2 -p cbr -e 500 -c 0 -i 4 -a 0 -x {0.0 2.0 4 ------- null}
- -t 1.03004 -s 1 -d 2 -p cbr -e 500 -c 0 -i 4 -a 0 -x {0.0 2.0 4 ------- null}
h -t 1.03004 -s 1 -d 2 -p cbr -e 500 -c 0 -i 4 -a 0 -x {0.0 2.0 -1 ------- null}
r -t 1.03404 -s 1 -d 2 -p cbr -e 500 -c 0 -i 2 -a 0 -x {0.0 2.0 2 ------- null}
+ -t 1.035 -s 0 -d 1 -p cbr -e 500 -c 0 -i 7 -a 0 -x {0.0 2.0 7 ------- null}
- -t 1.035 -s 0 -d 1 -p cbr -e 500 -c 0 -i 7 -a 0 -x {0.0 2.0 7 ------- null}
h -t 1.035 -s 0 -d 1 -p cbr -e 500 -c 0 -i 7 -a 0 -x {0.0 2.0 -1 ------- null}
r -t 1.03504 -s 0 -d 1 -p cbr -e 500 -c 0 -i 5 -a 0 -x {0.0 2.0 5 ------- null}
+ -t 1.03504 -s 1 -d 2 -p cbr -e 500 -c 0 -i 5 -a 0 -x {0.0 2.0 5 ------- null}
- -t 1.03504 -s 1 -d 2 -p cbr -e 500 -c 0 -i 5 -a 0 -x {0.0 2.0 5 ------- null}
h -t 1.03504 -s 1 -d 2 -p cbr -e 500 -c 0 -i 5 -a 0 -x {0.0 2.0 -1 ------- null}
r -t 1.03904 -s 1 -d 2 -p cbr -e 500 -c 0 -i 3 -a 0 -x {0.0 2.0 3 ------- null}
+ -t 1.04 -s 0 -d 1 -p cbr -e 500 -c 0 -i 8 -a 0 -x {0.0 2.0 8 ------- null}
- -t 1.04 -s 0 -d 1 -p cbr -e 500 -c 0 -i 8 -a 0 -x {0.0 2.0 8 ------- null}
h -t 1.04 -s 0 -d 1 -p cbr -e 500 -c 0 -i 8 -a 0 -x {0.0 2.0 -1 ------- null}
r -t 1.04004 -s 0 -d 1 -p cbr -e 500 -c 0 -i 6 -a 0 -x {0.0 2.0 6 ------- null}
+ -t 1.04004 -s 1 -d 2 -p cbr -e 500 -c 0 -i 6 -a 0 -x {0.0 2.0 6 ------- null}
- -t 1.04004 -s 1 -d 2 -p cbr -e 500 -c 0 -i 6 -a 0 -x {0.0 2.0 6 ------- null}
h -t 1.04004 -s 1 -d 2 -p cbr -e 500 -c 0 -i 6 -a 0 -x {0.0 2.0 -1 ------- null}
r -t 1.04404 -s 1 -d 2 -p cbr -e 500 -c 0 -i 4 -a 0 -x {0.0 2.0 4 ------- null}
+ -t 1.045 -s 0 -d 1 -p cbr -e 500 -c 0 -i 9 -a 0 -x {0.0 2.0 9 ------- null}
- -t 1.045 -s 0 -d 1 -p cbr -e 500 -c 0 -i 9 -a 0 -x {0.0 2.0 9 ------- null}
h -t 1.045 -s 0 -d 1 -p cbr -e 500 -c 0 -i 9 -a 0 -x {0.0 2.0 -1 ------- null}
r -t 1.04504 -s 0 -d 1 -p cbr -e 500 -c 0 -i 7 -a 0 -x {0.0 2.0 7 ------- null}
+ -t 1.04504 -s 1 -d 2 -p cbr -e 500 -c 0 -i 7 -a 0 -x {0.0 2.0 7 ------- null}
- -t 1.04504 -s 1 -d 2 -p cbr -e 500 -c 0 -i 7 -a 0 -x {0.0 2.0 7 ------- null}
h -t 1.04504 -s 1 -d 2 -p cbr -e 500 -c 0 -i 7 -a 0 -x {0.0 2.0 -1 ------- null}
r -t 1.04904 -s 1 -d 2 -p cbr -e 500 -c 0 -i 5 -a 0 -x {0.0 2.0 5 ------- null}
+ -t 1.05 -s 0 -d 1 -p cbr -e 500 -c 0 -i 10 -a 0 -x {0.0 2.0 10 ------- null}
- -t 1.05 -s 0 -d 1 -p cbr -e 500 -c 0 -i 10 -a 0 -x {0.0 2.0 10 ------- null}
h -t 1.05 -s 0 -d 1 -p cbr -e 500 -c 0 -i 10 -a 0 -x {0.0 2.0 -1 ------- null}
r -t 1.05004 -s 0 -d 1 -p cbr -e 500 -c 0 -i 8 -a 0 -x {0.0 2.0 8 ------- null}
+ -t 1.05004 -s 1 -d 2 -p cbr -e 500 -c 0 -i 8 -a 0 -x {0.0 2.0 8 ------- null}
- -t 1.05004 -s 1 -d 2 -p cbr -e 500 -c 0 -i 8 -a 0 -x {0.0 2.0 8 ------- null}
h -t 1.05004 -s 1 -d 2 -p cbr -e 500 -c 0 -i 8 -a 0 -x {0.0 2.0 -1 ------- null}
r -t 1.05404 -s 1 -d 2 -p cbr -e 500 -c 0 -i 6 -a 0 -x {0.0 2.0 6 ------- null}
+ -t 1.055 -s 0 -d 1 -p cbr -e 500 -c 0 -i 11 -a 0 -x {0.0 2.0 11 ------- null}
- -t 1.055 -s 0 -d 1 -p cbr -e 500 -c 0 -i 11 -a 0 -x {0.0 2.0 11 ------- null}
h -t 1.055 -s 0 -d 1 -p cbr -e 500 -c 0 -i 11 -a 0 -x {0.0 2.0 -1 ------- null}
r -t 1.05504 -s 0 -d 1 -p cbr -e 500 -c 0 -i 9 -a 0 -x {0.0 2.0 9 ------- null}
+ -t 1.05504 -s 1 -d 2 -p cbr -e 500 -c 0 -i 9 -a 0 -x {0.0 2.0 9 ------- null}
- -t 1.05504 -s 1 -d 2 -p cbr -e 500 -c 0 -i 9 -a 0 -x {0.0 2.0 9 ------- null}
h -t 1.05504 -s 1 -d 2 -p cbr -e 500 -c 0 -i 9 -a 0 -x {0.0 2.0 -1 ------- null}
r -t 1.05904 -s 1 -d 2 -p cbr -e 500 -c 0 -i 7 -a 0 -x {0.0 2.0 7 ------- null}
+ -t 1.06 -s 0 -d 1 -p cbr -e 500 -c 0 -i 12 -a 0 -x {0.0 2.0 12 ------- null}
- -t 1.06 -s 0 -d 1 -p cbr -e 500 -c 0 -i 12 -a 0 -x {0.0 2.0 12 ------- null}
h -t 1.06 -s 0 -d 1 -p cbr -e 500 -c 0 -i 12 -a 0 -x {0.0 2.0 -1 ------- null}
r -t 1.06004 -s 0 -d 1 -p cbr -e 500 -c 0 -i 10 -a 0 -x {0.0 2.0 10 ------- null}
+ -t 1.06004 -s 1 -d 2 -p cbr -e 500 -c 0 -i 10 -a 0 -x {0.0 2.0 10 ------- null}
- -t 1.06004 -s 1 -d 2 -p cbr -e 500 -c 0 -i 10 -a 0 -x {0.0 2.0 10 ------- null}
h -t 1.06004 -s 1 -d 2 -p cbr -e 500 -c 0 -i 10 -a 0 -x {0.0 2.0 -1 ------- null}
r -t 1.06404 -s 1 -d 2 -p cbr -e 500 -c 0 -i 8 -a 0 -x {0.0 2.0 8 ------- null}
+ -t 1.065 -s 0 -d 1 -p cbr -e 500 -c 0 -i 13 -a 0 -x {0.0 2.0 13 ------- null}
- -t 1.065 -s 0 -d 1 -p cbr -e 500 -c 0 -i 13 -a 0 -x {0.0 2.0 13 ------- null}
h -t 1.065 -s 0 -d 1 -p cbr -e 500 -c 0 -i 13 -a 0 -x {0.0 2.0 -1 ------- null}
r -t 1.06504 -s 0 -d 1 -p cbr -e 500 -c 0 -i 11 -a 0 -x {0.0 2.0 11 ------- null}
+ -t 1.06504 -s 1 -d 2 -p cbr -e 500 -c 0 -i 11 -a 0 -x {0.0 2.0 11 ------- null}
- -t 1.06504 -s 1 -d 2 -p cbr -e 500 -c 0 -i 11 -a 0 -x {0.0 2.0 11 ------- null}
h -t 1.06504 -s 1 -d 2 -p cbr -e 500 -c 0 -i 11 -a 0 -x {0.0 2.0 -1 ------- null}
r -t 1.06904 -s 1 -d 2 -p cbr -e 500 -c 0 -i 9 -a 0 -x {0.0 2.0 9 ------- null}
+ -t 1.07 -s 0 -d 1 -p cbr -e 500 -c 0 -i 14 -a 0 -x {0.0 2.0 14 ------- null}
- -t 1.07 -s 0 -d 1 -p cbr -e 500 -c 0 -i 14 -a 0 -x {0.0 2.0 14 ------- null}
h -t 1.07 -s 0 -d 1 -p cbr -e 500 -c 0 -i 14 -a 0 -x {0.0 2.0 -1 ------- null}
r -t 1.07004 -s 0 -d 1 -p cbr -e 500 -c 0 -i 12 -a 0 -x {0.0 2.0 12 ------- null}
+ -t 1.07004 -s 1 -d 2 -p cbr -e 500 -c 0 -i 12 -a 0 -x {0.0 2.0 12 ------- null}
- -t 1.07004 -s 1 -d 2 -p cbr -e 500 -c 0 -i 12 -a 0 -x {0.0 2.0 12 ------- null}
h -t 1.07004 -s 1 -d 2 -p cbr -e 500 -c 0 -i 12 -a 0 -x {0.0 2.0 -1 ------- null}
r -t 1.07404 -s 1 -d 2 -p cbr -e 500 -c 0 -i 10 -a 0 -x {0.0 2.0 10 ------- null}
+ -t 1.075 -s 0 -d 1 -p cbr -e 500 -c 0 -i 15 -a 0 -x {0.0 2.0 15 ------- null}
- -t 1.075 -s 0 -d 1 -p cbr -e 500 -c 0 -i 15 -a 0 -x {0.0 2.0 15 ------- null}
h -t 1.075 -s 0 -d 1 -p cbr -e 500 -c 0 -i 15 -a 0 -x {0.0 2.0 -1 ------- null}
r -t 1.07504 -s 0 -d 1 -p cbr -e 500 -c 0 -i 13 -a 0 -x {0.0 2.0 13 ------- null}
+ -t 1.07504 -s 1 -d 2 -p cbr -e 500 -c 0 -i 13 -a 0 -x {0.0 2.0 13 ------- null}
- -t 1.07504 -s 1 -d 2 -p cbr -e 500 -c 0 -i 13 -a 0 -x {0.0 2.0 13 ------- null}
h -t 1.07504 -s 1 -d 2 -p cbr -e 500 -c 0 -i 13 -a 0 -x {0.0 2.0 -1 ------- null}
r -t 1.07904 -s 1 -d 2 -p cbr -e 500 -c 0 -i 11 -a 0 -x {0.0 2.0 11 ------- null}
+ -t 1.08 -s 0 -d 1 -p cbr -e 500 -c 0 -i 16 -a 0 -x {0.0 2.0 16 ------- null}
- -t 1.08 -s 0 -d 1 -p cbr -e 500 -c 0 -i 16 -a 0 -x {0.0 2.0 16 ------- null}
h -t 1.08 -s 0 -d 1 -p cbr -e 500 -c 0 -i 16 -a 0 -x {0.0 2.0 -1 ------- null}
r -t 1.08004 -s 0 -d 1 -p cbr -e 500 -c 0 -i 14 -a 0 -x {0.0 2.0 14 ------- null}
+ -t 1.08004 -s 1 -d 2 -p cbr -e 500 -c 0 -i 14 -a 0 -x {0.0 2.0 14 ------- null}
- -t 1.08004 -s 1 -d 2 -p cbr -e 500 -c 0 -i 14 -a 0 -x {0.0 2.0 14 ------- null}
h -t 1.08004 -s 1 -d 2 -p cbr -e 500 -c 0 -i 14 -a 0 -x {0.0 2.0 -1 ------- null}
r -t 1.08404 -s 1 -d 2 -p cbr -e 500 -c 0 -i 12 -a 0 -x {0.0 2.0 12 ------- null}
+ -t 1.085 -s 0 -d 1 -p cbr -e 500 -c 0 -i 17 -a 0 -x {0.0 2.0 17 ------- null}
- -t 1.085 -s 0 -d 1 -p cbr -e 500 -c 0 -i 17 -a 0 -x {0.0 2.0 17 ------- null}
h -t 1.085 -s 0 -d 1 -p cbr -e 500 -c 0 -i 17 -a 0 -x {0.0 2.0 -1 ------- null}
r -t 1.08504 -s 0 -d 1 -p cbr -e 500 -c 0 -i 15 -a 0 -x {0.0 2.0 15 ------- null}
+ -t 1.08504 -s 1 -d 2 -p cbr -e 500 -c 0 -i 15 -a 0 -x {0.0 2.0 15 ------- null}
- -t 1.08504 -s 1 -d 2 -p cbr -e 500 -c 0 -i 15 -a 0 -x {0.0 2.0 15 ------- null}
h -t 1.08504 -s 1 -d 2 -p cbr -e 500 -c 0 -i 15 -a 0 -x {0.0 2.0 -1 ------- null}
r -t 1.08904 -s 1 -d 2 -p cbr -e 500 -c 0 -i 13 -a 0 -x {0.0 2.0 13 ------- null}
+ -t 1.09 -s 0 -d 1 -p cbr -e 500 -c 0 -i 18 -a 0 -x {0.0 2.0 18 ------- null}
- -t 1.09 -s 0 -d 1 -p cbr -e 500 -c 0 -i 18 -a 0 -x {0.0 2.0 18 ------- null}
h -t 1.09 -s 0 -d 1 -p cbr -e 500 -c 0 -i 18 -a 0 -x {0.0 2.0 -1 ------- null}
r -t 1.09004 -s 0 -d 1 -p cbr -e 500 -c 0 -i 16 -a 0 -x {0.0 2.0 16 ------- null}
+ -t 1.09004 -s 1 -d 2 -p cbr -e 500 -c 0 -i 16 -a 0 -x {0.0 2.0 16 ------- null}
- -t 1.09004 -s 1 -d 2 -p cbr -e 500 -c 0 -i 16 -a 0 -x {0.0 2.0 16 ------- null}
h -t 1.09004 -s 1 -d 2 -p cbr -e 500 -c 0 -i 16 -a 0 -x {0.0 2.0 -1 ------- null}
r -t 1.09404 -s 1 -d 2 -p cbr -e 500 -c 0 -i 14 -a 0 -x {0.0 2.0 14 ------- null}
+ -t 1.095 -s 0 -d 1 -p cbr -e 500 -c 0 -i 19 -a 0 -x {0.0 2.0 19 ------- null}
- -t 1.095 -s 0 -d 1 -p cbr -e 500 -c 0 -i 19 -a 0 -x {0.0 2.0 19 ------- null}
h -t 1.095 -s 0 -d 1 -p cbr -e 500 -c 0 -i 19 -a 0 -x {0.0 2.0 -1 ------- null}
r -t 1.09504 -s 0 -d 1 -p cbr -e 500 -c 0 -i 17 -a 0 -x {0.0 2.0 17 ------- null}
+ -t 1.09504 -s 1 -d 2 -p cbr -e 500 -c 0 -i 17 -a 0 -x {0.0 2.0 17 ------- null}
- -t 1.09504 -s 1 -d 2 -p cbr -e 500 -c 0 -i 17 -a 0 -x {0.0 2.0 17 ------- null}
h -t 1.09504 -s 1 -d 2 -p cbr -e 500 -c 0 -i 17 -a 0 -x {0.0 2.0 -1 ------- null}
r -t 1.09904 -s 1 -d 2 -p cbr -e 500 -c 0 -i 15 -a 0 -x {0.0 2.0 15 ------- null}
+ -t 1.1 -s 0 -d 1 -p cbr -e 500 -c 0 -i 20 -a 0 -x {0.0 2.0 20 ------- null}
- -t 1.1 -s 0 -d 1 -p cbr -e 500 -c 0 -i 20 -a 0 -x {0.0 2.0 20 ------- null}
h -t 1.1 -s 0 -d 1 -p cbr -e 500 -c 0 -i 20 -a 0 -x {0.0 2.0 -1 ------- null}
r -t 1.10004 -s 0 -d 1 -p cbr -e 500 -c 0 -i 18 -a 0 -x {0.0 2.0 18 ------- null}
+ -t 1.10004 -s 1 -d 2 -p cbr -e 500 -c 0 -i 18 -a 0 -x {0.0 2.0 18 ------- null}
- -t 1.10004 -s 1 -d 2 -p cbr -e 500 -c 0 -i 18 -a 0 -x {0.0 2.0 18 ------- null}
h -t 1.10004 -s 1 -d 2 -p cbr -e 500 -c 0 -i 18 -a 0 -x {0.0 2.0 -1 ------- null}
r -t 1.10404 -s 1 -d 2 -p cbr -e 500 -c 0 -i 16 -a 0 -x {0.0 2.0 16 ------- null}
+ -t 1.105 -s 0 -d 1 -p cbr -e 500 -c 0 -i 21 -a 0 -x {0.0 2.0 21 ------- null}
- -t 1.105 -s 0 -d 1 -p cbr -e 500 -c 0 -i 21 -a 0 -x {0.0 2.0 21 ------- null}
h -t 1.105 -s 0 -d 1 -p cbr -e 500 -c 0 -i 21 -a 0 -x {0.0 2.0 -1 ------- null}
r -t 1.10504 -s 0 -d 1 -p cbr -e 500 -c 0 -i 19 -a 0 -x {0.0 2.0 19 ------- null}
+ -t 1.10504 -s 1 -d 2 -p cbr -e 500 -c 0 -i 19 -a 0 -x {0.0 2.0 19 ------- null}
- -t 1.10504 -s 1 -d 2 -p cbr -e 500 -c 0 -i 19 -a 0 -x {0.0 2.0 19 ------- null}
h -t 1.10504 -s 1 -d 2 -p cbr -e 500 -c 0 -i 19 -a 0 -x {0.0 2.0 -1 ------- null}
r -t 1.10904 -s 1 -d 2 -p cbr -e 500 -c 0 -i 17 -a 0 -x {0.0 2.0 17 ------- null}
+ -t 1.11 -s 0 -d 1 -p cbr -e 500 -c 0 -i 22 -a 0 -x {0.0 2.0 22 ------- null}
- -t 1.11 -s 0 -d 1 -p cbr -e 500 -c 0 -i 22 -a 0 -x {0.0 2.0 22 ------- null}
h -t 1.11 -s 0 -d 1 -p cbr -e 500 -c 0 -i 22 -a 0 -x {0.0 2.0 -1 ------- null}
r -t 1.11004 -s 0 -d 1 -p cbr -e 500 -c 0 -i 20 -a 0 -x {0.0 2.0 20 ------- null}
+ -t 1.11004 -s 1 -d 2 -p cbr -e 500 -c 0 -i 20 -a 0 -x {0.0 2.0 20 ------- null}
- -t 1.11004 -s 1 -d 2 -p cbr -e 500 -c 0 -i 20 -a 0 -x {0.0 2.0 20 ------- null}
h -t 1.11004 -s 1 -d 2 -p cbr -e 500 -c 0 -i 20 -a 0 -x {0.0 2.0 -1 ------- null}
r -t 1.11404 -s 1 -d 2 -p cbr -e 500 -c 0 -i 18 -a 0 -x {0.0 2.0 18 ------- null}
+ -t 1.115 -s 0 -d 1 -p cbr -e 500 -c 0 -i 23 -a 0 -x {0.0 2.0 23 ------- null}
- -t 1.115 -s 0 -d 1 -p cbr -e 500 -c 0 -i 23 -a 0 -x {0.0 2.0 23 ------- null}
h -t 1.115 -s 0 -d 1 -p cbr -e 500 -c 0 -i 23 -a 0 -x {0.0 2.0 -1 ------- null}
r -t 1.11504 -s 0 -d 1 -p cbr -e 500 -c 0 -i 21 -a 0 -x {0.0 2.0 21 ------- null}
+ -t 1.11504 -s 1 -d 2 -p cbr -e 500 -c 0 -i 21 -a 0 -x {0.0 2.0 21 ------- null}
- -t 1.11504 -s 1 -d 2 -p cbr -e 500 -c 0 -i 21 -a 0 -x {0.0 2.0 21 ------- null}
h -t 1.11504 -s 1 -d 2 -p cbr -e 500 -c 0 -i 21 -a 0 -x {0.0 2.0 -1 ------- null}
r -t 1.11904 -s 1 -d 2 -p cbr -e 500 -c 0 -i 19 -a 0 -x {0.0 2.0 19 ------- null}
+ -t 1.12 -s 0 -d 1 -p cbr -e 500 -c 0 -i 24 -a 0 -x {0.0 2.0 24 ------- null}
- -t 1.12 -s 0 -d 1 -p cbr -e 500 -c 0 -i 24 -a 0 -x {0.0 2.0 24 ------- null}
h -t 1.12 -s 0 -d 1 -p cbr -e 500 -c 0 -i 24 -a 0 -x {0.0 2.0 -1 ------- null}
r -t 1.12004 -s 0 -d 1 -p cbr -e 500 -c 0 -i 22 -a 0 -x {0.0 2.0 22 ------- null}
+ -t 1.12004 -s 1 -d 2 -p cbr -e 500 -c 0 -i 22 -a 0 -x {0.0 2.0 22 ------- null}
- -t 1.12004 -s 1 -d 2 -p cbr -e 500 -c 0 -i 22 -a 0 -x {0.0 2.0 22 ------- null}
h -t 1.12004 -s 1 -d 2 -p cbr -e 500 -c 0 -i 22 -a 0 -x {0.0 2.0 -1 ------- null}
r -t 1.12404 -s 1 -d 2 -p cbr -e 500 -c 0 -i 20 -a 0 -x {0.0 2.0 20 ------- null}
+ -t 1.125 -s 0 -d 1 -p cbr -e 500 -c 0 -i 25 -a 0 -x {0.0 2.0 25 ------- null}
- -t 1.125 -s 0 -d 1 -p cbr -e 500 -c 0 -i 25 -a 0 -x {0.0 2.0 25 ------- null}
h -t 1.125 -s 0 -d 1 -p cbr -e 500 -c 0 -i 25 -a 0 -x {0.0 2.0 -1 ------- null}
r -t 1.12504 -s 0 -d 1 -p cbr -e 500 -c 0 -i 23 -a 0 -x {0.0 2.0 23 ------- null}
+ -t 1.12504 -s 1 -d 2 -p cbr -e 500 -c 0 -i 23 -a 0 -x {0.0 2.0 23 ------- null}
- -t 1.12504 -s 1 -d 2 -p cbr -e 500 -c 0 -i 23 -a 0 -x {0.0 2.0 23 ------- null}
h -t 1.12504 -s 1 -d 2 -p cbr -e 500 -c 0 -i 23 -a 0 -x {0.0 2.0 -1 ------- null}
r -t 1.12904 -s 1 -d 2 -p cbr -e 500 -c 0 -i 21 -a 0 -x {0.0 2.0 21 ------- null}
+ -t 1.13 -s 0 -d 1 -p cbr -e 500 -c 0 -i 26 -a 0 -x {0.0 2.0 26 ------- null}
- -t 1.13 -s 0 -d 1 -p cbr -e 500 -c 0 -i 26 -a 0 -x {0.0 2.0 26 ------- null}
h -t 1.13 -s 0 -d 1 -p cbr -e 500 -c 0 -i 26 -a 0 -x {0.0 2.0 -1 ------- null}
r -t 1.13004 -s 0 -d 1 -p cbr -e 500 -c 0 -i 24 -a 0 -x {0.0 2.0 24 ------- null}
+ -t 1.13004 -s 1 -d 2 -p cbr -e 500 -c 0 -i 24 -a 0 -x {0.0 2.0 24 ------- null}
- -t 1.13004 -s 1 -d 2 -p cbr -e 500 -c 0 -i 24 -a 0 -x {0.0 2.0 24 ------- null}
h -t 1.13004 -s 1 -d 2 -p cbr -e 500 -c 0 -i 24 -a 0 -x {0.0 2.0 -1 ------- null}
r -t 1.13404 -s 1 -d 2 -p cbr -e 500 -c 0 -i 22 -a 0 -x {0.0 2.0 22 ------- null}
+ -t 1.135 -s 0 -d 1 -p cbr -e 500 -c 0 -i 27 -a 0 -x {0.0 2.0 27 ------- null}
- -t 1.135 -s 0 -d 1 -p cbr -e 500 -c 0 -i 27 -a 0 -x {0.0 2.0 27 ------- null}
h -t 1.135 -s 0 -d 1 -p cbr -e 500 -c 0 -i 27 -a 0 -x {0.0 2.0 -1 ------- null}
r -t 1.13504 -s 0 -d 1 -p cbr -e 500 -c 0 -i 25 -a 0 -x {0.0 2.0 25 ------- null}
+ -t 1.13504 -s 1 -d 2 -p cbr -e 500 -c 0 -i 25 -a 0 -x {0.0 2.0 25 ------- null}
- -t 1.13504 -s 1 -d 2 -p cbr -e 500 -c 0 -i 25 -a 0 -x {0.0 2.0 25 ------- null}
h -t 1.13504 -s 1 -d 2 -p cbr -e 500 -c 0 -i 25 -a 0 -x {0.0 2.0 -1 ------- null}
r -t 1.13904 -s 1 -d 2 -p cbr -e 500 -c 0 -i 23 -a 0 -x {0.0 2.0 23 ------- null}
+ -t 1.14 -s 0 -d 1 -p cbr -e 500 -c 0 -i 28 -a 0 -x {0.0 2.0 28 ------- null}
- -t 1.14 -s 0 -d 1 -p cbr -e 500 -c 0 -i 28 -a 0 -x {0.0 2.0 28 ------- null}
h -t 1.14 -s 0 -d 1 -p cbr -e 500 -c 0 -i 28 -a 0 -x {0.0 2.0 -1 ------- null}
r -t 1.14004 -s 0 -d 1 -p cbr -e 500 -c 0 -i 26 -a 0 -x {0.0 2.0 26 ------- null}
+ -t 1.14004 -s 1 -d 2 -p cbr -e 500 -c 0 -i 26 -a 0 -x {0.0 2.0 26 ------- null}
- -t 1.14004 -s 1 -d 2 -p cbr -e 500 -c 0 -i 26 -a 0 -x {0.0 2.0 26 ------- null}
h -t 1.14004 -s 1 -d 2 -p cbr -e 500 -c 0 -i 26 -a 0 -x {0.0 2.0 -1 ------- null}
r -t 1.14404 -s 1 -d 2 -p cbr -e 500 -c 0 -i 24 -a 0 -x {0.0 2.0 24 ------- null}
+ -t 1.145 -s 0 -d 1 -p cbr -e 500 -c 0 -i 29 -a 0 -x {0.0 2.0 29 ------- null}
- -t 1.145 -s 0 -d 1 -p cbr -e 500 -c 0 -i 29 -a 0 -x {0.0 2.0 29 ------- null}
h -t 1.145 -s 0 -d 1 -p cbr -e 500 -c 0 -i 29 -a 0 -x {0.0 2.0 -1 ------- null}
r -t 1.14504 -s 0 -d 1 -p cbr -e 500 -c 0 -i 27 -a 0 -x {0.0 2.0 27 ------- null}
+ -t 1.14504 -s 1 -d 2 -p cbr -e 500 -c 0 -i 27 -a 0 -x {0.0 2.0 27 ------- null}
- -t 1.14504 -s 1 -d 2 -p cbr -e 500 -c 0 -i 27 -a 0 -x {0.0 2.0 27 ------- null}
h -t 1.14504 -s 1 -d 2 -p cbr -e 500 -c 0 -i 27 -a 0 -x {0.0 2.0 -1 ------- null}
r -t 1.14904 -s 1 -d 2 -p cbr -e 500 -c 0 -i 25 -a 0 -x {0.0 2.0 25 ------- null}
+ -t 1.15 -s 0 -d 1 -p cbr -e 500 -c 0 -i 30 -a 0 -x {0.0 2.0 30 ------- null}
- -t 1.15 -s 0 -d 1 -p cbr -e 500 -c 0 -i 30 -a 0 -x {0.0 2.0 30 ------- null}
h -t 1.15 -s 0 -d 1 -p cbr -e 500 -c 0 -i 30 -a 0 -x {0.0 2.0 -1 ------- null}
r -t 1.15004 -s 0 -d 1 -p cbr -e 500 -c 0 -i 28 -a 0 -x {0.0 2.0 28 ------- null}
+ -t 1.15004 -s 1 -d 2 -p cbr -e 500 -c 0 -i 28 -a 0 -x {0.0 2.0 28 ------- null}
- -t 1.15004 -s 1 -d 2 -p cbr -e 500 -c 0 -i 28 -a 0 -x {0.0 2.0 28 ------- null}
h -t 1.15004 -s 1 -d 2 -p cbr -e 500 -c 0 -i 28 -a 0 -x {0.0 2.0 -1 ------- null}
r -t 1.15404 -s 1 -d 2 -p cbr -e 500 -c 0 -i 26 -a 0 -x {0.0 2.0 26 ------- null}
+ -t 1.155 -s 0 -d 1 -p cbr -e 500 -c 0 -i 31 -a 0 -x {0.0 2.0 31 ------- null}
- -t 1.155 -s 0 -d 1 -p cbr -e 500 -c 0 -i 31 -a 0 -x {0.0 2.0 31 ------- null}
h -t 1.155 -s 0 -d 1 -p cbr -e 500 -c 0 -i 31 -a 0 -x {0.0 2.0 -1 ------- null}
r -t 1.15504 -s 0 -d 1 -p cbr -e 500 -c 0 -i 29 -a 0 -x {0.0 2.0 29 ------- null}
+ -t 1.15504 -s 1 -d 2 -p cbr -e 500 -c 0 -i 29 -a 0 -x {0.0 2.0 29 ------- null}
- -t 1.15504 -s 1 -d 2 -p cbr -e 500 -c 0 -i 29 -a 0 -x {0.0 2.0 29 ------- null}
h -t 1.15504 -s 1 -d 2 -p cbr -e 500 -c 0 -i 29 -a 0 -x {0.0 2.0 -1 ------- null}
r -t 1.15904 -s 1 -d 2 -p cbr -e 500 -c 0 -i 27 -a 0 -x {0.0 2.0 27 ------- null}
+ -t 1.16 -s 0 -d 1 -p cbr -e 500 -c 0 -i 32 -a 0 -x {0.0 2.0 32 ------- null}
- -t 1.16 -s 0 -d 1 -p cbr -e 500 -c 0 -i 32 -a 0 -x {0.0 2.0 32 ------- null}
h -t 1.16 -s 0 -d 1 -p cbr -e 500 -c 0 -i 32 -a 0 -x {0.0 2.0 -1 ------- null}
r -t 1.16004 -s 0 -d 1 -p cbr -e 500 -c 0 -i 30 -a 0 -x {0.0 2.0 30 ------- null}
+ -t 1.16004 -s 1 -d 2 -p cbr -e 500 -c 0 -i 30 -a 0 -x {0.0 2.0 30 ------- null}
- -t 1.16004 -s 1 -d 2 -p cbr -e 500 -c 0 -i 30 -a 0 -x {0.0 2.0 30 ------- null}
h -t 1.16004 -s 1 -d 2 -p cbr -e 500 -c 0 -i 30 -a 0 -x {0.0 2.0 -1 ------- null}
r -t 1.16404 -s 1 -d 2 -p cbr -e 500 -c 0 -i 28 -a 0 -x {0.0 2.0 28 ------- null}
+ -t 1.165 -s 0 -d 1 -p cbr -e 500 -c 0 -i 33 -a 0 -x {0.0 2.0 33 ------- null}
- -t 1.165 -s 0 -d 1 -p cbr -e 500 -c 0 -i 33 -a 0 -x {0.0 2.0 33 ------- null}
h -t 1.165 -s 0 -d 1 -p cbr -e 500 -c 0 -i 33 -a 0 -x {0.0 2.0 -1 ------- null}
r -t 1.16504 -s 0 -d 1 -p cbr -e 500 -c 0 -i 31 -a 0 -x {0.0 2.0 31 ------- null}
+ -t 1.16504 -s 1 -d 2 -p cbr -e 500 -c 0 -i 31 -a 0 -x {0.0 2.0 31 ------- null}
- -t 1.16504 -s 1 -d 2 -p cbr -e 500 -c 0 -i 31 -a 0 -x {0.0 2.0 31 ------- null}
h -t 1.16504 -s 1 -d 2 -p cbr -e 500 -c 0 -i 31 -a 0 -x {0.0 2.0 -1 ------- null}
r -t 1.16904 -s 1 -d 2 -p cbr -e 500 -c 0 -i 29 -a 0 -x {0.0 2.0 29 ------- null}
+ -t 1.17 -s 0 -d 1 -p cbr -e 500 -c 0 -i 34 -a 0 -x {0.0 2.0 34 ------- null}
- -t 1.17 -s 0 -d 1 -p cbr -e 500 -c 0 -i 34 -a 0 -x {0.0 2.0 34 ------- null}
h -t 1.17 -s 0 -d 1 -p cbr -e 500 -c 0 -i 34 -a 0 -x {0.0 2.0 -1 ------- null}
r -t 1.17004 -s 0 -d 1 -p cbr -e 500 -c 0 -i 32 -a 0 -x {0.0 2.0 32 ------- null}
+ -t 1.17004 -s 1 -d 2 -p cbr -e 500 -c 0 -i 32 -a 0 -x {0.0 2.0 32 ------- null}
- -t 1.17004 -s 1 -d 2 -p cbr -e 500 -c 0 -i 32 -a 0 -x {0.0 2.0 32 ------- null}
h -t 1.17004 -s 1 -d 2 -p cbr -e 500 -c 0 -i 32 -a 0 -x {0.0 2.0 -1 ------- null}
r -t 1.17404 -s 1 -d 2 -p cbr -e 500 -c 0 -i 30 -a 0 -x {0.0 2.0 30 ------- null}
+ -t 1.175 -s 0 -d 1 -p cbr -e 500 -c 0 -i 35 -a 0 -x {0.0 2.0 35 ------- null}
- -t 1.175 -s 0 -d 1 -p cbr -e 500 -c 0 -i 35 -a 0 -x {0.0 2.0 35 ------- null}
h -t 1.175 -s 0 -d 1 -p cbr -e 500 -c 0 -i 35 -a 0 -x {0.0 2.0 -1 ------- null}
r -t 1.17504 -s 0 -d 1 -p cbr -e 500 -c 0 -i 33 -a 0 -x {0.0 2.0 33 ------- null}
+ -t 1.17504 -s 1 -d 2 -p cbr -e 500 -c 0 -i 33 -a 0 -x {0.0 2.0 33 ------- null}
- -t 1.17504 -s 1 -d 2 -p cbr -e 500 -c 0 -i 33 -a 0 -x {0.0 2.0 33 ------- null}
h -t 1.17504 -s 1 -d 2 -p cbr -e 500 -c 0 -i 33 -a 0 -x {0.0 2.0 -1 ------- null}
r -t 1.17904 -s 1 -d 2 -p cbr -e 500 -c 0 -i 31 -a 0 -x {0.0 2.0 31 ------- null}
+ -t 1.18 -s 0 -d 1 -p cbr -e 500 -c 0 -i 36 -a 0 -x {0.0 2.0 36 ------- null}
- -t 1.18 -s 0 -d 1 -p cbr -e 500 -c 0 -i 36 -a 0 -x {0.0 2.0 36 ------- null}
h -t 1.18 -s 0 -d 1 -p cbr -e 500 -c 0 -i 36 -a 0 -x {0.0 2.0 -1 ------- null}
r -t 1.18004 -s 0 -d 1 -p cbr -e 500 -c 0 -i 34 -a 0 -x {0.0 2.0 34 ------- null}
+ -t 1.18004 -s 1 -d 2 -p cbr -e 500 -c 0 -i 34 -a 0 -x {0.0 2.0 34 ------- null}
- -t 1.18004 -s 1 -d 2 -p cbr -e 500 -c 0 -i 34 -a 0 -x {0.0 2.0 34 ------- null}
h -t 1.18004 -s 1 -d 2 -p cbr -e 500 -c 0 -i 34 -a 0 -x {0.0 2.0 -1 ------- null}
r -t 1.18404 -s 1 -d 2 -p cbr -e 500 -c 0 -i 32 -a 0 -x {0.0 2.0 32 ------- null}
+ -t 1.185 -s 0 -d 1 -p cbr -e 500 -c 0 -i 37 -a 0 -x {0.0 2.0 37 ------- null}
- -t 1.185 -s 0 -d 1 -p cbr -e 500 -c 0 -i 37 -a 0 -x {0.0 2.0 37 ------- null}
h -t 1.185 -s 0 -d 1 -p cbr -e 500 -c 0 -i 37 -a 0 -x {0.0 2.0 -1 ------- null}
r -t 1.18504 -s 0 -d 1 -p cbr -e 500 -c 0 -i 35 -a 0 -x {0.0 2.0 35 ------- null}
+ -t 1.18504 -s 1 -d 2 -p cbr -e 500 -c 0 -i 35 -a 0 -x {0.0 2.0 35 ------- null}
- -t 1.18504 -s 1 -d 2 -p cbr -e 500 -c 0 -i 35 -a 0 -x {0.0 2.0 35 ------- null}
h -t 1.18504 -s 1 -d 2 -p cbr -e 500 -c 0 -i 35 -a 0 -x {0.0 2.0 -1 ------- null}
r -t 1.18904 -s 1 -d 2 -p cbr -e 500 -c 0 -i 33 -a 0 -x {0.0 2.0 33 ------- null}
+ -t 1.19 -s 0 -d 1 -p cbr -e 500 -c 0 -i 38 -a 0 -x {0.0 2.0 38 ------- null}
- -t 1.19 -s 0 -d 1 -p cbr -e 500 -c 0 -i 38 -a 0 -x {0.0 2.0 38 ------- null}
h -t 1.19 -s 0 -d 1 -p cbr -e 500 -c 0 -i 38 -a 0 -x {0.0 2.0 -1 ------- null}
r -t 1.19004 -s 0 -d 1 -p cbr -e 500 -c 0 -i 36 -a 0 -x {0.0 2.0 36 ------- null}
+ -t 1.19004 -s 1 -d 2 -p cbr -e 500 -c 0 -i 36 -a 0 -x {0.0 2.0 36 ------- null}
- -t 1.19004 -s 1 -d 2 -p cbr -e 500 -c 0 -i 36 -a 0 -x {0.0 2.0 36 ------- null}
h -t 1.19004 -s 1 -d 2 -p cbr -e 500 -c 0 -i 36 -a 0 -x {0.0 2.0 -1 ------- null}
r -t 1.19404 -s 1 -d 2 -p cbr -e 500 -c 0 -i 34 -a 0 -x {0.0 2.0 34 ------- null}
+ -t 1.195 -s 0 -d 1 -p cbr -e 500 -c 0 -i 39 -a 0 -x {0.0 2.0 39 ------- null}
- -t 1.195 -s 0 -d 1 -p cbr -e 500 -c 0 -i 39 -a 0 -x {0.0 2.0 39 ------- null}
h -t 1.195 -s 0 -d 1 -p cbr -e 500 -c 0 -i 39 -a 0 -x {0.0 2.0 -1 ------- null}
r -t 1.19504 -s 0 -d 1 -p cbr -e 500 -c 0 -i 37 -a 0 -x {0.0 2.0 37 ------- null}
+ -t 1.19504 -s 1 -d 2 -p cbr -e 500 -c 0 -i 37 -a 0 -x {0.0 2.0 37 ------- null}
- -t 1.19504 -s 1 -d 2 -p cbr -e 500 -c 0 -i 37 -a 0 -x {0.0 2.0 37 ------- null}
h -t 1.19504 -s 1 -d 2 -p cbr -e 500 -c 0 -i 37 -a 0 -x {0.0 2.0 -1 ------- null}
r -t 1.19904 -s 1 -d 2 -p cbr -e 500 -c 0 -i 35 -a 0 -x {0.0 2.0 35 ------- null}
+ -t 1.2 -s 0 -d 1 -p cbr -e 500 -c 0 -i 40 -a 0 -x {0.0 2.0 40 ------- null}
- -t 1.2 -s 0 -d 1 -p cbr -e 500 -c 0 -i 40 -a 0 -x {0.0 2.0 40 ------- null}
h -t 1.2 -s 0 -d 1 -p cbr -e 500 -c 0 -i 40 -a 0 -x {0.0 2.0 -1 ------- null}
r -t 1.20004 -s 0 -d 1 -p cbr -e 500 -c 0 -i 38 -a 0 -x {0.0 2.0 38 ------- null}
+ -t 1.20004 -s 1 -d 2 -p cbr -e 500 -c 0 -i 38 -a 0 -x {0.0 2.0 38 ------- null}
- -t 1.20004 -s 1 -d 2 -p cbr -e 500 -c 0 -i 38 -a 0 -x {0.0 2.0 38 ------- null}
h -t 1.20004 -s 1 -d 2 -p cbr -e 500 -c 0 -i 38 -a 0 -x {0.0 2.0 -1 ------- null}
r -t 1.20404 -s 1 -d 2 -p cbr -e 500 -c 0 -i 36 -a 0 -x {0.0 2.0 36 ------- null}
+ -t 1.205 -s 0 -d 1 -p cbr -e 500 -c 0 -i 41 -a 0 -x {0.0 2.0 41 ------- null}
- -t 1.205 -s 0 -d 1 -p cbr -e 500 -c 0 -i 41 -a 0 -x {0.0 2.0 41 ------- null}
h -t 1.205 -s 0 -d 1 -p cbr -e 500 -c 0 -i 41 -a 0 -x {0.0 2.0 -1 ------- null}
r -t 1.20504 -s 0 -d 1 -p cbr -e 500 -c 0 -i 39 -a 0 -x {0.0 2.0 39 ------- null}
+ -t 1.20504 -s 1 -d 2 -p cbr -e 500 -c 0 -i 39 -a 0 -x {0.0 2.0 39 ------- null}
- -t 1.20504 -s 1 -d 2 -p cbr -e 500 -c 0 -i 39 -a 0 -x {0.0 2.0 39 ------- null}
h -t 1.20504 -s 1 -d 2 -p cbr -e 500 -c 0 -i 39 -a 0 -x {0.0 2.0 -1 ------- null}
r -t 1.20904 -s 1 -d 2 -p cbr -e 500 -c 0 -i 37 -a 0 -x {0.0 2.0 37 ------- null}
+ -t 1.21 -s 0 -d 1 -p cbr -e 500 -c 0 -i 42 -a 0 -x {0.0 2.0 42 ------- null}
- -t 1.21 -s 0 -d 1 -p cbr -e 500 -c 0 -i 42 -a 0 -x {0.0 2.0 42 ------- null}
h -t 1.21 -s 0 -d 1 -p cbr -e 500 -c 0 -i 42 -a 0 -x {0.0 2.0 -1 ------- null}
r -t 1.21004 -s 0 -d 1 -p cbr -e 500 -c 0 -i 40 -a 0 -x {0.0 2.0 40 ------- null}
+ -t 1.21004 -s 1 -d 2 -p cbr -e 500 -c 0 -i 40 -a 0 -x {0.0 2.0 40 ------- null}
- -t 1.21004 -s 1 -d 2 -p cbr -e 500 -c 0 -i 40 -a 0 -x {0.0 2.0 40 ------- null}
h -t 1.21004 -s 1 -d 2 -p cbr -e 500 -c 0 -i 40 -a 0 -x {0.0 2.0 -1 ------- null}
r -t 1.21404 -s 1 -d 2 -p cbr -e 500 -c 0 -i 38 -a 0 -x {0.0 2.0 38 ------- null}
+ -t 1.215 -s 0 -d 1 -p cbr -e 500 -c 0 -i 43 -a 0 -x {0.0 2.0 43 ------- null}
- -t 1.215 -s 0 -d 1 -p cbr -e 500 -c 0 -i 43 -a 0 -x {0.0 2.0 43 ------- null}
h -t 1.215 -s 0 -d 1 -p cbr -e 500 -c 0 -i 43 -a 0 -x {0.0 2.0 -1 ------- null}
r -t 1.21504 -s 0 -d 1 -p cbr -e 500 -c 0 -i 41 -a 0 -x {0.0 2.0 41 ------- null}
+ -t 1.21504 -s 1 -d 2 -p cbr -e 500 -c 0 -i 41 -a 0 -x {0.0 2.0 41 ------- null}
- -t 1.21504 -s 1 -d 2 -p cbr -e 500 -c 0 -i 41 -a 0 -x {0.0 2.0 41 ------- null}
h -t 1.21504 -s 1 -d 2 -p cbr -e 500 -c 0 -i 41 -a 0 -x {0.0 2.0 -1 ------- null}
r -t 1.21904 -s 1 -d 2 -p cbr -e 500 -c 0 -i 39 -a 0 -x {0.0 2.0 39 ------- null}
+ -t 1.22 -s 0 -d 1 -p cbr -e 500 -c 0 -i 44 -a 0 -x {0.0 2.0 44 ------- null}
- -t 1.22 -s 0 -d 1 -p cbr -e 500 -c 0 -i 44 -a 0 -x {0.0 2.0 44 ------- null}
h -t 1.22 -s 0 -d 1 -p cbr -e 500 -c 0 -i 44 -a 0 -x {0.0 2.0 -1 ------- null}
r -t 1.22004 -s 0 -d 1 -p cbr -e 500 -c 0 -i 42 -a 0 -x {0.0 2.0 42 ------- null}
+ -t 1.22004 -s 1 -d 2 -p cbr -e 500 -c 0 -i 42 -a 0 -x {0.0 2.0 42 ------- null}
- -t 1.22004 -s 1 -d 2 -p cbr -e 500 -c 0 -i 42 -a 0 -x {0.0 2.0 42 ------- null}
h -t 1.22004 -s 1 -d 2 -p cbr -e 500 -c 0 -i 42 -a 0 -x {0.0 2.0 -1 ------- null}
r -t 1.22404 -s 1 -d 2 -p cbr -e 500 -c 0 -i 40 -a 0 -x {0.0 2.0 40 ------- null}
+ -t 1.225 -s 0 -d 1 -p cbr -e 500 -c 0 -i 45 -a 0 -x {0.0 2.0 45 ------- null}
- -t 1.225 -s 0 -d 1 -p cbr -e 500 -c 0 -i 45 -a 0 -x {0.0 2.0 45 ------- null}
h -t 1.225 -s 0 -d 1 -p cbr -e 500 -c 0 -i 45 -a 0 -x {0.0 2.0 -1 ------- null}
r -t 1.22504 -s 0 -d 1 -p cbr -e 500 -c 0 -i 43 -a 0 -x {0.0 2.0 43 ------- null}
+ -t 1.22504 -s 1 -d 2 -p cbr -e 500 -c 0 -i 43 -a 0 -x {0.0 2.0 43 ------- null}
- -t 1.22504 -s 1 -d 2 -p cbr -e 500 -c 0 -i 43 -a 0 -x {0.0 2.0 43 ------- null}
h -t 1.22504 -s 1 -d 2 -p cbr -e 500 -c 0 -i 43 -a 0 -x {0.0 2.0 -1 ------- null}
r -t 1.22904 -s 1 -d 2 -p cbr -e 500 -c 0 -i 41 -a 0 -x {0.0 2.0 41 ------- null}
+ -t 1.23 -s 0 -d 1 -p cbr -e 500 -c 0 -i 46 -a 0 -x {0.0 2.0 46 ------- null}
- -t 1.23 -s 0 -d 1 -p cbr -e 500 -c 0 -i 46 -a 0 -x {0.0 2.0 46 ------- null}
h -t 1.23 -s 0 -d 1 -p cbr -e 500 -c 0 -i 46 -a 0 -x {0.0 2.0 -1 ------- null}
r -t 1.23004 -s 0 -d 1 -p cbr -e 500 -c 0 -i 44 -a 0 -x {0.0 2.0 44 ------- null}
+ -t 1.23004 -s 1 -d 2 -p cbr -e 500 -c 0 -i 44 -a 0 -x {0.0 2.0 44 ------- null}
- -t 1.23004 -s 1 -d 2 -p cbr -e 500 -c 0 -i 44 -a 0 -x {0.0 2.0 44 ------- null}
h -t 1.23004 -s 1 -d 2 -p cbr -e 500 -c 0 -i 44 -a 0 -x {0.0 2.0 -1 ------- null}
r -t 1.23404 -s 1 -d 2 -p cbr -e 500 -c 0 -i 42 -a 0 -x {0.0 2.0 42 ------- null}
+ -t 1.23499999999999 -s 0 -d 1 -p cbr -e 500 -c 0 -i 47 -a 0 -x {0.0 2.0 47 ------- null}
- -t 1.23499999999999 -s 0 -d 1 -p cbr -e 500 -c 0 -i 47 -a 0 -x {0.0 2.0 47 ------- null}
h -t 1.23499999999999 -s 0 -d 1 -p cbr -e 500 -c 0 -i 47 -a 0 -x {0.0 2.0 -1 ------- null}