+ 1 0 1 cbr 500 ------- 0 0.0 2.0 0 0
- 1 0 1 cbr 500 ------- 0 0.0 2.0 0 0
+ 1.005 0 1 cbr 500 ------- 0 0.0 2.0 1 1
- 1.005 0 1 cbr 500 ------- 0 0.0 2.0 1 1
+ 1.01 0 1 cbr 500 ------- 0 0.0 2.0 2 2
- 1.01 0 1 cbr 500 ------- 0 0.0 2.0 2 2
r 1.01004 0 1 cbr 500 ------- 0 0.0 2.0 0 0
+ 1.01004 1 2 cbr 500 ------- 0 0.0 2.0 0 0
- 1.01004 1 2 cbr 500 ------- 0 0.0 2.0 0 0
+ 1.015 0 1 cbr 500 ------- 0 0.0 2.0 3 3
- 1.015 0 1 cbr 500 ------- 0 0.0 2.0 3 3
r 1.01504 0 1 cbr 500 ------- 0 0.0 2.0 1 1
+ 1.01504 1 2 cbr 500 ------- 0 0.0 2.0 1 1
- 1.01504 1 2 cbr 500 ------- 0 0.0 2.0 1 1
+ 1.02 0 1 cbr 500 ------- 0 0.0 2.0 4 4
- 1.02 0 1 cbr 500 ------- 0 0.0 2.0 4 4
r 1.02004 0 1 cbr 500 ------- 0 0.0 2.0 2 2
+ 1.02004 1 2 cbr 500 ------- 0 0.0 2.0 2 2
- 1.02004 1 2 cbr 500 ------- 0 0.0 2.0 2 2
r 1.02404 1 2 cbr 500 ------- 0 0.0 2.0 0 0
+ 1.025 0 1 cbr 500 ------- 0 0.0 2.0 5 5
- 1.025 0 1 cbr 500 ------- 0 0.0 2.0 5 5
r 1.02504 0 1 cbr 500 ------- 0 0.0 2.0 3 3
+ 1.02504 1 2 cbr 500 ------- 0 0.0 2.0 3 3
- 1.02504 1 2 cbr 500 ------- 0 0.0 2.0 3 3
r 1.02904 1 2 cbr 500 ------- 0 0.0 2.0 1 1
+ 1.03 0 1 cbr 500 ------- 0 0.0 2.0 6 6
- 1.03 0 1 cbr 500 ------- 0 0.0 2.0 6 6
r 1.03004 0 1 cbr 500 ------- 0 0.0 2.0 4 4
+ 1.03004 1 2 cbr 500 ------- 0 0.0 2.0 4 4
- 1.03004 1 2 cbr 500 ------- 0 0.0 2.0 4 4
r 1.03404 1 2 cbr 500 ------- 0 0.0 2.0 2 2
+ 1.035 0 1 cbr 500 ------- 0 0.0 2.0 7 7
- 1.035 0 1 cbr 500 ------- 0 0.0 2.0 7 7
r 1.03504 0 1 cbr 500 ------- 0 0.0 2.0 5 5
+ 1.03504 1 2 cbr 500 ------- 0 0.0 2.0 5 5
- 1.03504 1 2 cbr 500 ------- 0 0.0 2.0 5 5
r 1.03904 1 2 cbr 500 ------- 0 0.0 2.0 3 3
+ 1.04 0 1 cbr 500 ------- 0 0.0 2.0 8 8
- 1.04 0 1 cbr 500 ------- 0 0.0 2.0 8 8
r 1.04004 0 1 cbr 500 ------- 0 0.0 2.0 6 6
+ 1.04004 1 2 cbr 500 ------- 0 0.0 2.0 6 6
- 1.04004 1 2 cbr 500 ------- 0 0.0 2.0 6 6
r 1.04404 1 2 cbr 500 ------- 0 0.0 2.0 4 4
+ 1.045 0 1 cbr 500 ------- 0 0.0 2.0 9 9
- 1.045 0 1 cbr 500 ------- 0 0.0 2.0 9 9
r 1.04504 0 1 cbr 500 ------- 0 0.0 2.0 7 7
+ 1.04504 1 2 cbr 500 ------- 0 0.0 2.0 7 7
- 1.04504 1 2 cbr 500 ------- 0 0.0 2.0 7 7
r 1.04904 1 2 cbr 500 ------- 0 0.0 2.0 5 5
+ 1.05 0 1 cbr 500 ------- 0 0.0 2.0 10 10
- 1.05 0 1 cbr 500 ------- 0 0.0 2.0 10 10
r 1.05004 0 1 cbr 500 ------- 0 0.0 2.0 8 8
+ 1.05004 1 2 cbr 500 ------- 0 0.0 2.0 8 8
- 1.05004 1 2 cbr 500 ------- 0 0.0 2.0 8 8
r 1.05404 1 2 cbr 500 ------- 0 0.0 2.0 6 6
+ 1.055 0 1 cbr 500 ------- 0 0.0 2.0 11 11
- 1.055 0 1 cbr 500 ------- 0 0.0 2.0 11 11
r 1.05504 0 1 cbr 500 ------- 0 0.0 2.0 9 9
+ 1.05504 1 2 cbr 500 ------- 0 0.0 2.0 9 9
- 1.05504 1 2 cbr 500 ------- 0 0.0 2.0 9 9
r 1.05904 1 2 cbr 500 ------- 0 0.0 2.0 7 7
+ 1.06 0 1 cbr 500 ------- 0 0.0 2.0 12 12
- 1.06 0 1 cbr 500 ------- 0 0.0 2.0 12 12
r 1.06004 0 1 cbr 500 ------- 0 0.0 2.0 10 10
+ 1.06004 1 2 cbr 500 ------- 0 0.0 2.0 10 10
- 1.06004 1 2 cbr 500 ------- 0 0.0 2.0 10 10
r 1.06404 1 2 cbr 500 ------- 0 0.0 2.0 8 8
+ 1.065 0 1 cbr 500 ------- 0 0.0 2.0 13 13
- 1.065 0 1 cbr 500 ------- 0 0.0 2.0 13 13
r 1.06504 0 1 cbr 500 ------- 0 0.0 2.0 11 11
+ 1.06504 1 2 cbr 500 ------- 0 0.0 2.0 11 11
- 1.06504 1 2 cbr 500 ------- 0 0.0 2.0 11 11
r 1.06904 1 2 cbr 500 ------- 0 0.0 2.0 9 9
+ 1.07 0 1 cbr 500 ------- 0 0.0 2.0 14 14
- 1.07 0 1 cbr 500 ------- 0 0.0 2.0 14 14
r 1.07004 0 1 cbr 500 ------- 0 0.0 2.0 12 12
+ 1.07004 1 2 cbr 500 ------- 0 0.0 2.0 12 12
- 1.07004 1 2 cbr 500 ------- 0 0.0 2.0 12 12
r 1.07404 1 2 cbr 500 ------- 0 0.0 2.0 10 10
+ 1.075 0 1 cbr 500 ------- 0 0.0 2.0 15 15
- 1.075 0 1 cbr 500 ------- 0 0.0 2.0 15 15
r 1.07504 0 1 cbr 500 ------- 0 0.0 2.0 13 13
+ 1.07504 1 2 cbr 500 ------- 0 0.0 2.0 13 13
- 1.07504 1 2 cbr 500 ------- 0 0.0 2.0 13 13
r 1.07904 1 2 cbr 500 ------- 0 0.0 2.0 11 11
+ 1.08 0 1 cbr 500 ------- 0 0.0 2.0 16 16
- 1.08 0 1 cbr 500 ------- 0 0.0 2.0 16 16
r 1.08004 0 1 cbr 500 ------- 0 0.0 2.0 14 14
+ 1.08004 1 2 cbr 500 ------- 0 0.0 2.0 14 14
- 1.08004 1 2 cbr 500 ------- 0 0.0 2.0 14 14
r 1.08404 1 2 cbr 500 ------- 0 0.0 2.0 12 12
+ 1.085 0 1 cbr 500 ------- 0 0.0 2.0 17 17
- 1.085 0 1 cbr 500 ------- 0 0.0 2.0 17 17
r 1.08504 0 1 cbr 500 ------- 0 0.0 2.0 15 15
+ 1.08504 1 2 cbr 500 ------- 0 0.0 2.0 15 15
- 1.08504 1 2 cbr 500 ------- 0 0.0 2.0 15 15
r 1.08904 1 2 cbr 500 ------- 0 0.0 2.0 13 13
+ 1.09 0 1 cbr 500 ------- 0 0.0 2.0 18 18
- 1.09 0 1 cbr 500 ------- 0 0.0 2.0 18 18
r 1.09004 0 1 cbr 500 ------- 0 0.0 2.0 16 16
+ 1.09004 1 2 cbr 500 ------- 0 0.0 2.0 16 16
- 1.09004 1 2 cbr 500 ------- 0 0.0 2.0 16 16
r 1.09404 1 2 cbr 500 ------- 0 0.0 2.0 14 14
+ 1.095 0 1 cbr 500 ------- 0 0.0 2.0 19 19
- 1.095 0 1 cbr 500 ------- 0 0.0 2.0 19 19
r 1.09504 0 1 cbr 500 ------- 0 0.0 2.0 17 17
+ 1.09504 1 2 cbr 500 ------- 0 0.0 2.0 17 17
- 1.09504 1 2 cbr 500 ------- 0 0.0 2.0 17 17
r 1.09904 1 2 cbr 500 ------- 0 0.0 2.0 15 15
+ 1.1 0 1 cbr 500 ------- 0 0.0 2.0 20 20
- 1.1 0 1 cbr 500 ------- 0 0.0 2.0 20 20
r 1.10004 0 1 cbr 500 ------- 0 0.0 2.0 18 18
+ 1.10004 1 2 cbr 500 ------- 0 0.0 2.0 18 18
- 1.10004 1 2 cbr 500 ------- 0 0.0 2.0 18 18
r 1.10404 1 2 cbr 500 ------- 0 0.0 2.0 16 16
+ 1.105 0 1 cbr 500 ------- 0 0.0 2.0 21 21
- 1.105 0 1 cbr 500 ------- 0 0.0 2.0 21 21
r 1.10504 0 1 cbr 500 ------- 0 0.0 2.0 19 19
+ 1.10504 1 2 cbr 500 ------- 0 0.0 2.0 19 19
- 1.10504 1 2 cbr 500 ------- 0 0.0 2.0 19 19
r 1.10904 1 2 cbr 500 ------- 0 0.0 2.0 17 17
+ 1.11 0 1 cbr 500 ------- 0 0.0 2.0 22 22
- 1.11 0 1 cbr 500 ------- 0 0.0 2.0 22 22
r 1.11004 0 1 cbr 500 ------- 0 0.0 2.0 20 20
+ 1.11004 1 2 cbr 500 ------- 0 0.0 2.0 20 20
- 1.11004 1 2 cbr 500 ------- 0 0.0 2.0 20 20
r 1.11404 1 2 cbr 500 ------- 0 0.0 2.0 18 18
+ 1.115 0 1 cbr 500 ------- 0 0.0 2.0 23 23
- 1.115 0 1 cbr 500 ------- 0 0.0 2.0 23 23
r 1.11504 0 1 cbr 500 ------- 0 0.0 2.0 21 21
+ 1.11504 1 2 cbr 500 ------- 0 0.0 2.0 21 21
- 1.11504 1 2 cbr 500 ------- 0 0.0 2.0 21 21
r 1.11904 1 2 cbr 500 ------- 0 0.0 2.0 19 19
+ 1.12 0 1 cbr 500 ------- 0 0.0 2.0 24 24
- 1.12 0 1 cbr 500 ------- 0 0.0 2.0 24 24
r 1.12004 0 1 cbr 500 ------- 0 0.0 2.0 22 22
+ 1.12004 1 2 cbr 500 ------- 0 0.0 2.0 22 22
- 1.12004 1 2 cbr 500 ------- 0 0.0 2.0 22 22
r 1.12404 1 2 cbr 500 ------- 0 0.0 2.0 20 20
+ 1.125 0 1 cbr 500 ------- 0 0.0 2.0 25 25
- 1.125 0 1 cbr 500 ------- 0 0.0 2.0 25 25
r 1.12504 0 1 cbr 500 ------- 0 0.0 2.0 23 23
+ 1.12504 1 2 cbr 500 ------- 0 0.0 2.0 23 23
- 1.12504 1 2 cbr 500 ------- 0 0.0 2.0 23 23
r 1.12904 1 2 cbr 500 ------- 0 0.0 2.0 21 21
+ 1.13 0 1 cbr 500 ------- 0 0.0 2.0 26 26
- 1.13 0 1 cbr 500 ------- 0 0.0 2.0 26 26
r 1.13004 0 1 cbr 500 ------- 0 0.0 2.0 24 24
+ 1.13004 1 2 cbr 500 ------- 0 0.0 2.0 24 24
- 1.13004 1 2 cbr 500 ------- 0 0.0 2.0 24 24
r 1.13404 1 2 cbr 500 ------- 0 0.0 2.0 22 22
+ 1.135 0 1 cbr 500 ------- 0 0.0 2.0 27 27
- 1.135 0 1 cbr 500 ------- 0 0.0 2.0 27 27
r 1.13504 0 1 cbr 500 ------- 0 0.0 2.0 25 25
+ 1.13504 1 2 cbr 500 ------- 0 0.0 2.0 25 25
- 1.13504 1 2 cbr 500 ------- 0 0.0 2.0 25 25
r 1.13904 1 2 cbr 500 ------- 0 0.0 2.0 23 23
+ 1.14 0 1 cbr 500 ------- 0 0.0 2.0 28 28
- 1.14 0 1 cbr 500 ------- 0 0.0 2.0 28 28
r 1.14004 0 1 cbr 500 ------- 0 0.0 2.0 26 26
+ 1.14004 1 2 cbr 500 ------- 0 0.0 2.0 26 26
- 1.14004 1 2 cbr 500 ------- 0 0.0 2.0 26 26
r 1.14404 1 2 cbr 500 ------- 0 0.0 2.0 24 24
+ 1.145 0 1 cbr 500 ------- 0 0.0 2.0 29 29
- 1.145 0 1 cbr 500 ------- 0 0.0 2.0 29 29
r 1.14504 0 1 cbr 500 ------- 0 0.0 2.0 27 27
+ 1.14504 1 2 cbr 500 ------- 0 0.0 2.0 27 27
- 1.14504 1 2 cbr 500 ------- 0 0.0 2.0 27 27
r 1.14904 1 2 cbr 500 ------- 0 0.0 2.0 25 25
+ 1.15 0 1 cbr 500 ------- 0 0.0 2.0 30 30
- 1.15 0 1 cbr 500 ------- 0 0.0 2.0 30 30
r 1.15004 0 1 cbr 500 ------- 0 0.0 2.0 28 28
+ 1.15004 1 2 cbr 500 ------- 0 0.0 2.0 28 28
- 1.15004 1 2 cbr 500 ------- 0 0.0 2.0 28 28
r 1.15404 1 2 cbr 500 ------- 0 0.0 2.0 26 26
+ 1.155 0 1 cbr 500 ------- 0 0.0 2.0 31 31
- 1.155 0 1 cbr 500 ------- 0 0.0 2.0 31 31
r 1.15504 0 1 cbr 500 ------- 0 0.0 2.0 29 29
+ 1.15504 1 2 cbr 500 ------- 0 0.0 2.0 29 29
- 1.15504 1 2 cbr 500 ------- 0 0.0 2.0 29 29
r 1.15904 1 2 cbr 500 ------- 0 0.0 2.0 27 27
+ 1.16 0 1 cbr 500 ------- 0 0.0 2.0 32 32
- 1.16 0 1 cbr 500 ------- 0 0.0 2.0 32 32
r 1.16004 0 1 cbr 500 ------- 0 0.0 2.0 30 30
+ 1.16004 1 2 cbr 500 ------- 0 0.0 2.0 30 30
- 1.16004 1 2 cbr 500 ------- 0 0.0 2.0 30 30
r 1.16404 1 2 cbr 500 ------- 0 0.0 2.0 28 28
+ 1.165 0 1 cbr 500 ------- 0 0.0 2.0 33 33
- 1.165 0 1 cbr 500 ------- 0 0.0 2.0 33 33
r 1.16504 0 1 cbr 500 ------- 0 0.0 2.0 31 31
+ 1.16504 1 2 cbr 500 ------- 0 0.0 2.0 31 31
- 1.16504 1 2 cbr 500 ------- 0 0.0 2.0 31 31
r 1.16904 1 2 cbr 500 ------- 0 0.0 2.0 29 29
+ 1.17 0 1 cbr 500 ------- 0 0.0 2.0 34 34
- 1.17 0 1 cbr 500 ------- 0 0.0 2.0 34 34
r 1.17004 0 1 cbr 500 ------- 0 0.0 2.0 32 32
+ 1.17004 1 2 cbr 500 ------- 0 0.0 2.0 32 32
- 1.17004 1 2 cbr 500 ------- 0 0.0 2.0 32 32
r 1.17404 1 2 cbr 500 ------- 0 0.0 2.0 30 30
+ 1.175 0 1 cbr 500 ------- 0 0.0 2.0 35 35
- 1.175 0 1 cbr 500 ------- 0 0.0 2.0 35 35
r 1.17504 0 1 cbr 500 ------- 0 0.0 2.0 33 33
+ 1.17504 1 2 cbr 500 ------- 0 0.0 2.0 33 33
- 1.17504 1 2 cbr 500 ------- 0 0.0 2.0 33 33
r 1.17904 1 2 cbr 500 ------- 0 0.0 2.0 31 31
+ 1.18 0 1 cbr 500 ------- 0 0.0 2.0 36 36
- 1.18 0 1 cbr 500 ------- 0 0.0 2.0 36 36
r 1.18004 0 1 cbr 500 ------- 0 0.0 2.0 34 34
+ 1.18004 1 2 cbr 500 ------- 0 0.0 2.0 34 34
- 1.18004 1 2 cbr 500 ------- 0 0.0 2.0 34 34
r 1.18404 1 2 cbr 500 ------- 0 0.0 2.0 32 32
+ 1.185 0 1 cbr 500 ------- 0 0.0 2.0 37 37
- 1.185 0 1 cbr 500 ------- 0 0.0 2.0 37 37
r 1.18504 0 1 cbr 500 ------- 0 0.0 2.0 35 35
+ 1.18504 1 2 cbr 500 ------- 0 0.0 2.0 35 35
- 1.18504 1 2 cbr 500 ------- 0 0.0 2.0 35 35
r 1.18904 1 2 cbr 500 ------- 0 0.0 2.0 33 33
+ 1.19 0 1 cbr 500 ------- 0 0.0 2.0 38 38
- 1.19 0 1 cbr 500 ------- 0 0.0 2.0 38 38
r 1.19004 0 1 cbr 500 ------- 0 0.0 2.0 36 36
+ 1.19004 1 2 cbr 500 ------- 0 0.0 2.0 36 36
- 1.19004 1 2 cbr 500 ------- 0 0.0 2.0 36 36
r 1.19404 1 2 cbr 500 ------- 0 0.0 2.0 34 34
+ 1.195 0 1 cbr 500 ------- 0 0.0 2.0 39 39
- 1.195 0 1 cbr 500 ------- 0 0.0 2.0 39 39
r 1.19504 0 1 cbr 500 ------- 0 0.0 2.0 37 37
+ 1.19504 1 2 cbr 500 ------- 0 0.0 2.0 37 37
- 1.19504 1 2 cbr 500 ------- 0 0.0 2.0 37 37
r 1.19904 1 2 cbr 500 ------- 0 0.0 2.0 35 35
+ 1.2 0 1 cbr 500 ------- 0 0.0 2.0 40 40
- 1.2 0 1 cbr 500 ------- 0 0.0 2.0 40 40
r 1.20004 0 1 cbr 500 ------- 0 0.0 2.0 38 38
+ 1.20004 1 2 cbr 500 ------- 0 0.0 2.0 38 38
- 1.20004 1 2 cbr 500 ------- 0 0.0 2.0 38 38
r 1.20404 1 2 cbr 500 ------- 0 0.0 2.0 36 36
+ 1.205 0 1 cbr 500 ------- 0 0.0 2.0 41 41
- 1.205 0 1 cbr 500 ------- 0 0.0 2.0 41 41
r 1.20504 0 1 cbr 500 ------- 0 0.0 2.0 39 39
+ 1.20504 1 2 cbr 500 ------- 0 0.0 2.0 39 39
- 1.20504 1 2 cbr 500 ------- 0 0.0 2.0 39 39
r 1.20904 1 2 cbr 500 ------- 0 0.0 2.0 37 37
+ 1.21 0 1 cbr 500 ------- 0 0.0 2.0 42 42
- 1.21 0 1 cbr 500 ------- 0 0.0 2.0 42 42
r 1.21004 0 1 cbr 500 ------- 0 0.0 2.0 40 40
+ 1.21004 1 2 cbr 500 ------- 0 0.0 2.0 40 40
- 1.21004 1 2 cbr 500 ------- 0 0.0 2.0 40 40
r 1.21404 1 2 cbr 500 ------- 0 0.0 2.0 38 38
+ 1.215 0 1 cbr 500 ------- 0 0.0 2.0 43 43
- 1.215 0 1 cbr 500 ------- 0 0.0 2.0 43 43
r 1.21504 0 1 cbr 500 ------- 0 0.0 2.0 41 41
+ 1.21504 1 2 cbr 500 ------- 0 0.0 2.0 41 41
- 1.21504 1 2 cbr 500 ------- 0 0.0 2.0 41 41
r 1.21904 1 2 cbr 500 ------- 0 0.0 2.0 39 39
+ 1.22 0 1 cbr 500 ------- 0 0.0 2.0 44 44
- 1.22 0 1 cbr 500 ------- 0 0.0 2.0 44 44
r 1.22004 0 1 cbr 500 ------- 0 0.0 2.0 42 42
+ 1.22004 1 2 cbr 500 ------- 0 0.0 2.0 42 42
- 1.22004 1 2 cbr 500 ------- 0 0.0 2.0 42 42
r 1.22404 1 2 cbr 500 ------- 0 0.0 2.0 40 40
+ 1.225 0 1 cbr 500 ------- 0 0.0 2.0 45 45
- 1.225 0 1 cbr 500 ------- 0 0.0 2.0 45 45
r 1.22504 0 1 cbr 500 ------- 0 0.0 2.0 43 43
+ 1.22504 1 2 cbr 500 ------- 0 0.0 2.0 43 43
- 1.22504 1 2 cbr 500 ------- 0 0.0 2.0 43 43
r 1.22904 1 2 cbr 500 ------- 0 0.0 2.0 41 41
+ 1.23 0 1 cbr 500 ------- 0 0.0 2.0 46 46
- 1.23 0 1 cbr 500 ------- 0 0.0 2.0 46 46
r 1.23004 0 1 cbr 500 ------- 0 0.0 2.0 44 44
+ 1.23004 1 2 cbr 500 ------- 0 0.0 2.0 44 44
- 1.23004 1 2 cbr 500 ------- 0 0.0 2.0 44 44
r 1.23404 1 2 cbr 500 ------- 0 0.0 2.0 42 42
+ 1.235 0 1 cbr 500 ------- 0 0.0 2.0 47 47
- 1.235 0 1 cbr 500 ------- 0 0.0 2.0 47 47
r 1.23504 0 1 cbr 500 ------- 0 0.0 2.0 45 45
+ 1.23504 1 2 cbr 500 ------- 0 0.0 2.0 45 45
- 1.23504 1 2 cbr 500 ------- 0 0.0 2.0 45 45
r 1.23904 1 2 cbr 500 ------- 0 0.0 2.0 43 43
+ 1.24 0 1 cbr 500 ------- 0 0.0 2.0 48 48
- 1.24 0 1 cbr 500 ------- 0 0.0 2.0 48 48
r 1.24004 0 1 cbr 500 ------- 0 0.0 2.0 46 46
+ 1.24004 1 2 cbr 500 ------- 0 0.0 2.0 46 46
- 1.24004 1 2 cbr 500 ------- 0 0.0 2.0 46 46
r 1.24404 1 2 cbr 500 ------- 0 0.0 2.0 44 44
+ 1.245 0 1 cbr 500 ------- 0 0.0 2.0 49 49
- 1.245 0 1 cbr 500 ------- 0 0.0 2.0 49 49
r 1.24504 0 1 cbr 500 ------- 0 0.0 2.0 47 47
+ 1.24504 1 2 cbr 500 ------- 0 0.0 2.0 47 47
- 1.24504 1 2 cbr 500 ------- 0 0.0 2.0 47 47
r 1.24904 1 2 cbr 500 ------- 0 0.0 2.0 45 45
+ 1.25 0 1 cbr 500 ------- 0 0.0 2.0 50 50
- 1.25 0 1 cbr 500 ------- 0 0.0 2.0 50 50
r 1.25004 0 1 cbr 500 ------- 0 0.0 2.0 48 48
+ 1.25004 1 2 cbr 500 ------- 0 0.0 2.0 48 48
- 1.25004 1 2 cbr 500 ------- 0 0.0 2.0 48 48
r 1.25404 1 2 cbr 500 ------- 0 0.0 2.0 46 46
+ 1.255 0 1 cbr 500 ------- 0 0.0 2.0 51 51
- 1.255 0 1 cbr 500 ------- 0 0.0 2.0 51 51
r 1.25504 0 1 cbr 500 ------- 0 0.0 2.0 49 49
+ 1.25504 1 2 cbr 500 ------- 0 0.0 2.0 49 49
- 1.25504 1 2 cbr 500 ------- 0 0.0 2.0 49 49
r 1.25904 1 2 cbr 500 ------- 0 0.0 2.0 47 47
+ 1.26 0 1 cbr 500 ------- 0 0.0 2.0 52 52
- 1.26 0 1 cbr 500 ------- 0 0.0 2.0 52 52
r 1.26004 0 1 cbr 500 ------- 0 0.0 2.0 50 50
+ 1.26004 1 2 cbr 500 ------- 0 0.0 2.0 50 50
- 1.26004 1 2 cbr 500 ------- 0 0.0 2.0 50 50
r 1.26404 1 2 cbr 500 ------- 0 0.0 2.0 48 48
+ 1.265 0 1 cbr 500 ------- 0 0.0 2.0 53 53
- 1.265 0 1 cbr 500 ------- 0 0.0 2.0 53 53
r 1.26504 0 1 cbr 500 ------- 0 0.0 2.0 51 51
+ 1.26504 1 2 cbr 500 ------- 0 0.0 2.0 51 51
- 1.26504 1 2 cbr 500 ------- 0 0.0 2.0 51 51
r 1.26904 1 2 cbr 500 ------- 0 0.0 2.0 49 49
+ 1.27 0 1 cbr 500 ------- 0 0.0 2.0 54 54
- 1.27 0 1 cbr 500 ------- 0 0.0 2.0 54 54
r 1.27004 0 1 cbr 500 ------- 0 0.0 2.0 52 52
+ 1.27004 1 2 cbr 500 ------- 0 0.0 2.0 52 52
- 1.27004 1 2 cbr 500 ------- 0 0.0 2.0 52 52
r 1.27404 1 2 cbr 500 ------- 0 0.0 2.0 50 50
+ 1.275 0 1 cbr 500 ------- 0 0.0 2.0 55 55
- 1.275 0 1 cbr 500 ------- 0 0.0 2.0 55 55
r 1.27504 0 1 cbr 500 ------- 0 0.0 2.0 53 53
+ 1.27504 1 2 cbr 500 ------- 0 0.0 2.0 53 53
- 1.27504 1 2 cbr 500 ------- 0 0.0 2.0 53 53
r 1.27904 1 2 cbr 500 ------- 0 0.0 2.0 51 51
+ 1.28 0 1 cbr 500 ------- 0 0.0 2.0 56 56
- 1.28 0 1 cbr 500 ------- 0 0.0 2.0 56 56
r 1.28004 0 1 cbr 500 ------- 0 0.0 2.0 54 54
+ 1.28004 1 2 cbr 500 ------- 0 0.0 2.0 54 54
- 1.28004 1 2 cbr 500 ------- 0 0.0 2.0 54 54
r 1.28404 1 2 cbr 500 ------- 0 0.0 2.0 52 52
+ 1.285 0 1 cbr 500 ------- 0 0.0 2.0 57 57
- 1.285 0 1 cbr 500 ------- 0 0.0 2.0 57 57
r 1.28504 0 1 cbr 500 ------- 0 0.0 2.0 55 55
+ 1.28504 1 2 cbr 500 ------- 0 0.0 2.0 55 55
- 1.28504 1 2 cbr 500 ------- 0 0.0 2.0 55 55
r 1.28904 1 2 cbr 500 ------- 0 0.0 2.0 53 53
+ 1.29 0 1 cbr 500 ------- 0 0.0 2.0 58 58
- 1.29 0 1 cbr 500 ------- 0 0.0 2.0 58 58
r 1.29004 0 1 cbr 500 ------- 0 0.0 2.0 56 56
+ 1.29004 1 2 cbr 500 ------- 0 0.0 2.0 56 56
- 1.29004 1 2 cbr 500 ------- 0 0.0 2.0 56 56
r 1.29404 1 2 cbr 500 ------- 0 0.0 2.0 54 54
+ 1.295 0 1 cbr 500 ------- 0 0.0 2.0 59 59
- 1.295 0 1 cbr 500 ------- 0 0.0 2.0 59 59
r 1.29504 0 1 cbr 500 ------- 0 0.0 2.0 57 57
+ 1.29504 1 2 cbr 500 ------- 0 0.0 2.0 57 57
- 1.29504 1 2 cbr 500 ------- 0 0.0 2.0 57 57
r 1.29904 1 2 cbr 500 ------- 0 0.0 2.0 55 55
+ 1.3 0 1 cbr 500 ------- 0 0.0 2.0 60 60
- 1.3 0 1 cbr 500 ------- 0 0.0 2.0 60 60
r 1.30004 0 1 cbr 500 ------- 0 0.0 2.0 58 58
+ 1.30004 1 2 cbr 500 ------- 0 0.0 2.0 58 58
- 1.30004 1 2 cbr 500 ------- 0 0.0 2.0 58 58
r 1.30404 1 2 cbr 500 ------- 0 0.0 2.0 56 56
+ 1.305 0 1 cbr 500 ------- 0 0.0 2.0 61 61
- 1.305 0 1 cbr 500 ------- 0 0.0 2.0 61 61
r 1.30504 0 1 cbr 500 ------- 0 0.0 2.0 59 59
+ 1.30504 1 2 cbr 500 ------- 0 0.0 2.0 59 59
- 1.30504 1 2 cbr 500 ------- 0 0.0 2.0 59 59
r 1.30904 1 2 cbr 500 ------- 0 0.0 2.0 57 57
+ 1.31 0 1 cbr 500 ------- 0 0.0 2.0 62 62
- 1.31 0 1 cbr 500 ------- 0 0.0 2.0 62 62
r 1.31004 0 1 cbr 500 ------- 0 0.0 2.0 60 60
+ 1.31004 1 2 cbr 500 ------- 0 0.0 2.0 60 60
- 1.31004 1 2 cbr 500 ------- 0 0.0 2.0 60 60
r 1.31404 1 2 cbr 500 ------- 0 0.0 2.0 58 58
+ 1.315 0 1 cbr 500 ------- 0 0.0 2.0 63 63
- 1.315 0 1 cbr 500 ------- 0 0.0 2.0 63 63
r 1.31504 0 1 cbr 500 ------- 0 0.0 2.0 61 61
+ 1.31504 1 2 cbr 500 ------- 0 0.0 2.0 61 61
- 1.31504 1 2 cbr 500 ------- 0 0.0 2.0 61 61
r 1.31904 1 2 cbr 500 ------- 0 0.0 2.0 59 59
+ 1.32 0 1 cbr 500 ------- 0 0.0 2.0 64 64
- 1.32 0 1 cbr 500 ------- 0 0.0 2.0 64 64
r 1.32004 0 1 cbr 500 ------- 0 0.0 2.0 62 62
+ 1.32004 1 2 cbr 500 ------- 0 0.0 2.0 62 62
- 1.32004 1 2 cbr 500 ------- 0 0.0 2.0 62 62
r 1.32404 1 2 cbr 500 ------- 0 0.0 2.0 60 60
+ 1.325 0 1 cbr 500 ------- 0 0.0 2.0 65 65
- 1.325 0 1 cbr 500 ------- 0 0.0 2.0 65 65
r 1.32504 0 1 cbr 500 ------- 0 0.0 2.0 63 63
+ 1.32504 1 2 cbr 500 ------- 0 0.0 2.0 63 63
- 1.32504 1 2 cbr 500 ------- 0 0.0 2.0 63 63
r 1.32904 1 2 cbr 500 ------- 0 0.0 2.0 61 61
+ 1.33 0 1 cbr 500 ------- 0 0.0 2.0 66 66
- 1.33 0 1 cbr 500 ------- 0 0.0 2.0 66 66
r 1.33004 0 1 cbr 500 ------- 0 0.0 2.0 64 64
+ 1.33004 1 2 cbr 500 ------- 0 0.0 2.0 64 64
- 1.33004 1 2 cbr 500 ------- 0 0.0 2.0 64 64
r 1.33404 1 2 cbr 500 ------- 0 0.0 2.0 62 62
+ 1.335 0 1 cbr 500 ------- 0 0.0 2.0 67 67
- 1.335 0 1 cbr 500 ------- 0 0.0 2.0 67 67
r 1.33504 0 1 cbr 500 ------- 0 0.0 2.0 65 65
+ 1.33504 1 2 cbr 500 ------- 0 0.0 2.0 65 65
- 1.33504 1 2 cbr 500 ------- 0 0.0 2.0 65 65
r 1.33904 1 2 cbr 500 ------- 0 0.0 2.0 63 63
+ 1.34 0 1 cbr 500 ------- 0 0.0 2.0 68 68
- 1.34 0 1 cbr 500 ------- 0 0.0 2.0 68 68
r 1.34004 0 1 cbr 500 ------- 0 0.0 2.0 66 66
+ 1.34004 1 2 cbr 500 ------- 0 0.0 2.0 66 66
- 1.34004 1 2 cbr 500 ------- 0 0.0 2.0 66 66
r 1.34404 1 2 cbr 500 ------- 0 0.0 2.0 64 64
+ 1.345 0 1 cbr 500 ------- 0 0.0 2.0 69 69
- 1.345 0 1 cbr 500 ------- 0 0.0 2.0 69 69
r 1.34504 0 1 cbr 500 ------- 0 0.0 2.0 67 67
+ 1.34504 1 2 cbr 500 ------- 0 0.0 2.0 67 67
- 1.34504 1 2 cbr 500 ------- 0 0.0 2.0 67 67
r 1.34904 1 2 cbr 500 ------- 0 0.0 2.0 65 65
+ 1.35 0 1 cbr 500 ------- 0 0.0 2.0 70 70
- 1.35 0 1 cbr 500 ------- 0 0.0 2.0 70 70
r 1.35004 0 1 cbr 500 ------- 0 0.0 2.0 68 68
+ 1.35004 1 2 cbr 500 ------- 0 0.0 2.0 68 68
- 1.35004 1 2 cbr 500 ------- 0 0.0 2.0 68 68
r 1.35404 1 2 cbr 500 ------- 0 0.0 2.0 66 66
+ 1.355 0 1 cbr 500 ------- 0 0.0 2.0 71 71
- 1.355 0 1 cbr 500 ------- 0 0.0 2.0 71 71
r 1.35504 0 1 cbr 500 ------- 0 0.0 2.0 69 69
+ 1.35504 1 2 cbr 500 ------- 0 0.0 2.0 69 69
- 1.35504 1 2 cbr 500 ------- 0 0.0 2.0 69 69
r 1.35904 1 2 cbr 500 ------- 0 0.0 2.0 67 67
+ 1.36 0 1 cbr 500 ------- 0 0.0 2.0 72 72
- 1.36 0 1 cbr 500 ------- 0 0.0 2.0 72 72
r 1.36004 0 1 cbr 500 ------- 0 0.0 2.0 70 70
+ 1.36004 1 2 cbr 500 ------- 0 0.0 2.0 70 70
- 1.36004 1 2 cbr 500 ------- 0 0.0 2.0 70 70
r 1.36404 1 2 cbr 500 ------- 0 0.0 2.0 68 68
+ 1.365 0 1 cbr 500 ------- 0 0.0 2.0 73 73
- 1.365 0 1 cbr 500 ------- 0 0.0 2.0 73 73
r 1.36504 0 1 cbr 500 ------- 0 0.0 2.0 71 71
+ 1.36504 1 2 cbr 500 ------- 0 0.0 2.0 71 71
- 1.36504 1 2 cbr 500 ------- 0 0.0 2.0 71 71
r 1.36904 1 2 cbr 500 ------- 0 0.0 2.0 69 69
+ 1.37 0 1 cbr 500 ------- 0 0.0 2.0 74 74
- 1.37 0 1 cbr 500 ------- 0 0.0 2.0 74 74
r 1.37004 0 1 cbr 500 ------- 0 0.0 2.0 72 72
+ 1.37004 1 2 cbr 500 ------- 0 0.0 2.0 72 72
- 1.37004 1 2 cbr 500 ------- 0 0.0 2.0 72 72
r 1.37404 1 2 cbr 500 ------- 0 0.0 2.0 70 70
+ 1.375 0 1 cbr 500 ------- 0 0.0 2.0 75 75
- 1.375 0 1 cbr 500 ------- 0 0.0 2.0 75 75
r 1.37504 0 1 cbr 500 ------- 0 0.0 2.0 73 73
+ 1.37504 1 2 cbr 500 ------- 0 0.0 2.0 73 73
- 1.37504 1 2 cbr 500 ------- 0 0.0 2.0 73 73
r 1.37904 1 2 cbr 500 ------- 0 0.0 2.0 71 71
+ 1.38 0 1 cbr 500 ------- 0 0.0 2.0 76 76
- 1.38 0 1 cbr 500 ------- 0 0.0 2.0 76 76
r 1.38004 0 1 cbr 500 ------- 0 0.0 2.0 74 74
+ 1.38004 1 2 cbr 500 ------- 0 0.0 2.0 74 74
- 1.38004 1 2 cbr 500 ------- 0 0.0 2.0 74 74
r 1.38404 1 2 cbr 500 ------- 0 0.0 2.0 72 72
+ 1.385 0 1 cbr 500 ------- 0 0.0 2.0 77 77
- 1.385 0 1 cbr 500 ------- 0 0.0 2.0 77 77
r 1.38504 0 1 cbr 500 ------- 0 0.0 2.0 75 75
+ 1.38504 1 2 cbr 500 ------- 0 0.0 2.0 75 75
- 1.38504 1 2 cbr 500 ------- 0 0.0 2.0 75 75
r 1.38904 1 2 cbr 500 ------- 0 0.0 2.0 73 73
+ 1.39 0 1 cbr 500 ------- 0 0.0 2.0 78 78
- 1.39 0 1 cbr 500 ------- 0 0.0 2.0 78 78
r 1.39004 0 1 cbr 500 ------- 0 0.0 2.0 76 76
+ 1.39004 1 2 cbr 500 ------- 0 0.0 2.0 76 76
- 1.39004 1 2 cbr 500 ------- 0 0.0 2.0 76 76
r 1.39404 1 2 cbr 500 ------- 0 0.0 2.0 74 74
+ 1.395 0 1 cbr 500 ------- 0 0.0 2.0 79 79
- 1.395 0 1 cbr 500 ------- 0 0.0 2.0 79 79
r 1.39504 0 1 cbr 500 ------- 0 0.0 2.0 77 77
+ 1.39504 1 2 cbr 500 ------- 0 0.0 2.0 77 77
- 1.39504 1 2 cbr 500 ------- 0 0.0 2.0 77 77
r 1.39904 1 2 cbr 500 ------- 0 0.0 2.0 75 75
+ 1.4 0 1 cbr 500 ------- 0 0.0 2.0 80 80
- 1.4 0 1 cbr 500 ------- 0 0.0 2.0 80 80
r 1.40004 0 1 cbr 500 ------- 0 0.0 2.0 78 78
+ 1.40004 1 2 cbr 500 ------- 0 0.0 2.0 78 78
- 1.40004 1 2 cbr 500 ------- 0 0.0 2.0 78 78
r 1.40404 1 2 cbr 500 ------- 0 0.0 2.0 76 76
+ 1.405 0 1 cbr 500 ------- 0 0.0 2.0 81 81
- 1.405 0 1 cbr 500 ------- 0 0.0 2.0 81 81
r 1.40504 0 1 cbr 500 ------- 0 0.0 2.0 79 79
+ 1.40504 1 2 cbr 500 ------- 0 0.0 2.0 79 79
- 1.40504 1 2 cbr 500 ------- 0 0.0 2.0 79 79
r 1.40904 1 2 cbr 500 ------- 0 0.0 2.0 77 77
+ 1.41 0 1 cbr 500 ------- 0 0.0 2.0 82 82
- 1.41 0 1 cbr 500 ------- 0 0.0 2.0 82 82
r 1.41004 0 1 cbr 500 ------- 0 0.0 2.0 80 80
+ 1.41004 1 2 cbr 500 ------- 0 0.0 2.0 80 80
- 1.41004 1 2 cbr 500 ------- 0 0.0 2.0 80 80
r 1.41404 1 2 cbr 500 ------- 0 0.0 2.0 78 78
+ 1.415 0 1 cbr 500 ------- 0 0.0 2.0 83 83
- 1.415 0 1 cbr 500 ------- 0 0.0 2.0 83 83
r 1.41504 0 1 cbr 500 ------- 0 0.0 2.0 81 81
+ 1.41504 1 2 cbr 500 ------- 0 0.0 2.0 81 81
- 1.41504 1 2 cbr 500 ------- 0 0.0 2.0 81 81
r 1.41904 1 2 cbr 500 ------- 0 0.0 2.0 79 79
+ 1.42 0 1 cbr 500 ------- 0 0.0 2.0 84 84
- 1.42 0 1 cbr 500 ------- 0 0.0 2.0 84 84
r 1.42004 0 1 cbr 500 ------- 0 0.0 2.0 82 82
+ 1.42004 1 2 cbr 500 ------- 0 0.0 2.0 82 82
- 1.42004 1 2 cbr 500 ------- 0 0.0 2.0 82 82
r 1.42404 1 2 cbr 500 ------- 0 0.0 2.0 80 80
+ 1.425 0 1 cbr 500 ------- 0 0.0 2.0 85 85
- 1.425 0 1 cbr 500 ------- 0 0.0 2.0 85 85
r 1.42504 0 1 cbr 500 ------- 0 0.0 2.0 83 83
+ 1.42504 1 2 cbr 500 ------- 0 0.0 2.0 83 83
- 1.42504 1 2 cbr 500 ------- 0 0.0 2.0 83 83
r 1.42904 1 2 cbr 500 ------- 0 0.0 2.0 81 81
+ 1.43 0 1 cbr 500 ------- 0 0.0 2.0 86 86
- 1.43 0 1 cbr 500 ------- 0 0.0 2.0 86 86
r 1.43004 0 1 cbr 500 ------- 0 0.0 2.0 84 84
+ 1.43004 1 2 cbr 500 ------- 0 0.0 2.0 84 84
- 1.43004 1 2 cbr 500 ------- 0 0.0 2.0 84 84
r 1.43404 1 2 cbr 500 ------- 0 0.0 2.0 82 82
+ 1.435 0 1 cbr 500 ------- 0 0.0 2.0 87 87
- 1.435 0 1 cbr 500 ------- 0 0.0 2.0 87 87
r 1.43504 0 1 cbr 500 ------- 0 0.0 2.0 85 85
+ 1.43504 1 2 cbr 500 ------- 0 0.0 2.0 85 85
- 1.43504 1 2 cbr 500 ------- 0 0.0 2.0 85 85
r 1.43904 1 2 cbr 500 ------- 0 0.0 2.0 83 83
+ 1.44 0 1 cbr 500 ------- 0 0.0 2.0 88 88
- 1.44 0 1 cbr 500 ------- 0 0.0 2.0 88 88
r 1.44004 0 1 cbr 500 ------- 0 0.0 2.0 86 86
+ 1.44004 1 2 cbr 500 ------- 0 0.0 2.0 86 86
- 1.44004 1 2 cbr 500 ------- 0 0.0 2.0 86 86
r 1.44404 1 2 cbr 500 ------- 0 0.0 2.0 84 84
+ 1.445 0 1 cbr 500 ------- 0 0.0 2.0 89 89
- 1.445 0 1 cbr 500 ------- 0 0.0 2.0 89 89
r 1.44504 0 1 cbr 500 ------- 0 0.0 2.0 87 87
+ 1.44504 1 2 cbr 500 ------- 0 0.0 2.0 87 87
- 1.44504 1 2 cbr 500 ------- 0 0.0 2.0 87 87
r 1.44904 1 2 cbr 500 ------- 0 0.0 2.0 85 85
+ 1.45 0 1 cbr 500 ------- 0 0.0 2.0 90 90
- 1.45 0 1 cbr 500 ------- 0 0.0 2.0 90 90
r 1.45004 0 1 cbr 500 ------- 0 0.0 2.0 88 88
+ 1.45004 1 2 cbr 500 ------- 0 0.0 2.0 88 88
- 1.45004 1 2 cbr 500 ------- 0 0.0 2.0 88 88
r 1.45404 1 2 cbr 500 ------- 0 0.0 2.0 86 86
+ 1.455 0 1 cbr 500 ------- 0 0.0 2.0 91 91
- 1.455 0 1 cbr 500 ------- 0 0.0 2.0 91 91
r 1.45504 0 1 cbr 500 ------- 0 0.0 2.0 89 89
+ 1.45504 1 2 cbr 500 ------- 0 0.0 2.0 89 89
- 1.45504 1 2 cbr 500 ------- 0 0.0 2.0 89 89
r 1.45904 1 2 cbr 500 ------- 0 0.0 2.0 87 87
+ 1.46 0 1 cbr 500 ------- 0 0.0 2.0 92 92
- 1.46 0 1 cbr 500 ------- 0 0.0 2.0 92 92
r 1.46004 0 1 cbr 500 ------- 0 0.0 2.0 90 90
+ 1.46004 1 2 cbr 500 ------- 0 0.0 2.0 90 90
- 1.46004 1 2 cbr 500 ------- 0 0.0 2.0 90 90
r 1.46404 1 2 cbr 500 ------- 0 0.0 2.0 88 88
+ 1.465 0 1 cbr 500 ------- 0 0.0 2.0 93 93
- 1.465 0 1 cbr 500 ------- 0 0.0 2.0 93 93
r 1.46504 0 1 cbr 500 ------- 0 0.0 2.0 91 91
+ 1.46504 1 2 cbr 500 ------- 0 0.0 2.0 91 91
- 1.46504 1 2 cbr 500 ------- 0 0.0 2.0 91 91
r 1.46904 1 2 cbr 500 ------- 0 0.0 2.0 89 89
+ 1.47 0 1 cbr 500 ------- 0 0.0 2.0 94 94
- 1.47 0 1 cbr 500 ------- 0 0.0 2.0 94 94
r 1.47004 0 1 cbr 500 ------- 0 0.0 2.0 92 92
+ 1.47004 1 2 cbr 500 ------- 0 0.0 2.0 92 92
- 1.47004 1 2 cbr 500 ------- 0 0.0 2.0 92 92
r 1.47404 1 2 cbr 500 ------- 0 0.0 2.0 90 90
+ 1.475 0 1 cbr 500 ------- 0 0.0 2.0 95 95
- 1.475 0 1 cbr 500 ------- 0 0.0 2.0 95 95
r 1.47504 0 1 cbr 500 ------- 0 0.0 2.0 93 93
+ 1.47504 1 2 cbr 500 ------- 0 0.0 2.0 93 93
- 1.47504 1 2 cbr 500 ------- 0 0.0 2.0 93 93
r 1.47904 1 2 cbr 500 ------- 0 0.0 2.0 91 91
+ 1.48 0 1 cbr 500 ------- 0 0.0 2.0 96 96
- 1.48 0 1 cbr 500 ------- 0 0.0 2.0 96 96
r 1.48004 0 1 cbr 500 ------- 0 0.0 2.0 94 94
+ 1.48004 1 2 cbr 500 ------- 0 0.0 2.0 94 94
- 1.48004 1 2 cbr 500 ------- 0 0.0 2.0 94 94
r 1.48404 1 2 cbr 500 ------- 0 0.0 2.0 92 92
+ 1.485 0 1 cbr 500 ------- 0 0.0 2.0 97 97
- 1.485 0 1 cbr 500 ------- 0 0.0 2.0 97 97
r 1.48504 0 1 cbr 500 ------- 0 0.0 2.0 95 95
+ 1.48504 1 2 cbr 500 ------- 0 0.0 2.0 95 95
- 1.48504 1 2 cbr 500 ------- 0 0.0 2.0 95 95
r 1.48904 1 2 cbr 500 ------- 0 0.0 2.0 93 93
+ 1.49 0 1 cbr 500 ------- 0 0.0 2.0 98 98
- 1.49 0 1 cbr 500 ------- 0 0.0 2.0 98 98
r 1.49004 0 1 cbr 500 ------- 0 0.0 2.0 96 96
+ 1.49004 1 2 cbr 500 ------- 0 0.0 2.0 96 96
- 1.49004 1 2 cbr 500 ------- 0 0.0 2.0 96 96
r 1.49404 1 2 cbr 500 ------- 0 0.0 2.0 94 94
+ 1.495 0 1 cbr 500 ------- 0 0.0 2.0 99 99
- 1.495 0 1 cbr 500 ------- 0 0.0 2.0 99 99
r 1.49504 0 1 cbr 500 ------- 0 0.0 2.0 97 97
+ 1.49504 1 2 cbr 500 ------- 0 0.0 2.0 97 97
- 1.49504 1 2 cbr 500 ------- 0 0.0 2.0 97 97
r 1.49904 1 2 cbr 500 ------- 0 0.0 2.0 95 95
+ 1.5 0 1 cbr 500 ------- 0 0.0 2.0 100 100
- 1.5 0 1 cbr 500 ------- 0 0.0 2.0 100 100
r 1.50004 0 1 cbr 500 ------- 0 0.0 2.0 98 98
+ 1.50004 1 2 cbr 500 ------- 0 0.0 2.0 98 98
- 1.50004 1 2 cbr 500 ------- 0 0.0 2.0 98 98
r 1.50404 1 2 cbr 500 ------- 0 0.0 2.0 96 96
+ 1.505 0 1 cbr 500 ------- 0 0.0 2.0 101 101
- 1.505 0 1 cbr 500 ------- 0 0.0 2.0 101 101
r 1.50504 0 1 cbr 500 ------- 0 0.0 2.0 99 99
+ 1.50504 1 2 cbr 500 ------- 0 0.0 2.0 99 99
- 1.50504 1 2 cbr 500 ------- 0 0.0 2.0 99 99
r 1.50904 1 2 cbr 500 ------- 0 0.0 2.0 97 97
+ 1.51 0 1 cbr 500 ------- 0 0.0 2.0 102 102
- 1.51 0 1 cbr 500 ------- 0 0.0 2.0 102 102
r 1.51004 0 1 cbr 500 ------- 0 0.0 2.0 100 100
+ 1.51004 1 2 cbr 500 ------- 0 0.0 2.0 100 100
- 1.51004 1 2 cbr 500 ------- 0 0.0 2.0 100 100
r 1.51404 1 2 cbr 500 ------- 0 0.0 2.0 98 98
+ 1.515 0 1 cbr 500 ------- 0 0.0 2.0 103 103
- 1.515 0 1 cbr 500 ------- 0 0.0 2.0 103 103
r 1.51504 0 1 cbr 500 ------- 0 0.0 2.0 101 101
+ 1.51504 1 2 cbr 500 ------- 0 0.0 2.0 101 101
- 1.51504 1 2 cbr 500 ------- 0 0.0 2.0 101 101
r 1.51904 1 2 cbr 500 ------- 0 0.0 2.0 99 99
+ 1.52 0 1 cbr 500 ------- 0 0.0 2.0 104 104
- 1.52 0 1 cbr 500 ------- 0 0.0 2.0 104 104
r 1.52004 0 1 cbr 500 ------- 0 0.0 2.0 102 102
+ 1.52004 1 2 cbr 500 ------- 0 0.0 2.0 102 102
- 1.52004 1 2 cbr 500 ------- 0 0.0 2.0 102 102
r 1.52404 1 2 cbr 500 ------- 0 0.0 2.0 100 100
+ 1.525 0 1 cbr 500 ------- 0 0.0 2.0 105 105
- 1.525 0 1 cbr 500 ------- 0 0.0 2.0 105 105
r 1.52504 0 1 cbr 500 ------- 0 0.0 2.0 103 103
+ 1.52504 1 2 cbr 500 ------- 0 0.0 2.0 103 103
- 1.52504 1 2 cbr 500 ------- 0 0.0 2.0 103 103
r 1.52904 1 2 cbr 500 ------- 0 0.0 2.0 101 101
+ 1.53 0 1 cbr 500 ------- 0 0.0 2.0 106 106
- 1.53 0 1 cbr 500 ------- 0 0.0 2.0 106 106
r 1.53004 0 1 cbr 500 ------- 0 0.0 2.0 104 104
+ 1.53004 1 2 cbr 500 ------- 0 0.0 2.0 104 104
- 1.53004 1 2 cbr 500 ------- 0 0.0 2.0 104 104
r 1.53404 1 2 cbr 500 ------- 0 0.0 2.0 102 102
+ 1.535 0 1 cbr 500 ------- 0 0.0 2.0 107 107
- 1.535 0 1 cbr 500 ------- 0 0.0 2.0 107 107
r 1.53504 0 1 cbr 500 ------- 0 0.0 2.0 105 105
+ 1.53504 1 2 cbr 500 ------- 0 0.0 2.0 105 105
- 1.53504 1 2 cbr 500 ------- 0 0.0 2.0 105 105
r 1.53904 1 2 cbr 500 ------- 0 0.0 2.0 103 103
+ 1.54 0 1 cbr 500 ------- 0 0.0 2.0 108 108
- 1.54 0 1 cbr 500 ------- 0 0.0 2.0 108 108
r 1.54004 0 1 cbr 500 ------- 0 0.0 2.0 106 106
+ 1.54004 1 2 cbr 500 ------- 0 0.0 2.0 106 106
- 1.54004 1 2 cbr 500 ------- 0 0.0 2.0 106 106
r 1.54404 1 2 cbr 500 ------- 0 0.0 2.0 104 104
+ 1.545 0 1 cbr 500 ------- 0 0.0 2.0 109 109
- 1.545 0 1 cbr 500 ------- 0 0.0 2.0 109 109
r 1.54504 0 1 cbr 500 ------- 0 0.0 2.0 107 107
+ 1.54504 1 2 cbr 500 ------- 0 0.0 2.0 107 107
- 1.54504 1 2 cbr 500 ------- 0 0.0 2.0 107 107
r 1.54904 1 2 cbr 500 ------- 0 0.0 2.0 105 105
+ 1.55 0 1 cbr 500 ------- 0 0.0 2.0 110 110
- 1.55 0 1 cbr 500 ------- 0 0.0 2.0 110 110
r 1.55004 0 1 cbr 500 ------- 0 0.0 2.0 108 108
+ 1.55004 1 2 cbr 500 ------- 0 0.0 2.0 108 108
- 1.55004 1 2 cbr 500 ------- 0 0.0 2.0 108 108
r 1.55404 1 2 cbr 500 ------- 0 0.0 2.0 106 106
+ 1.555 0 1 cbr 500 ------- 0 0.0 2.0 111 111
- 1.555 0 1 cbr 500 ------- 0 0.0 2.0 111 111
r 1.55504 0 1 cbr 500 ------- 0 0.0 2.0 109 109
+ 1.55504 1 2 cbr 500 ------- 0 0.0 2.0 109 109
- 1.55504 1 2 cbr 500 ------- 0 0.0 2.0 109 109
r 1.55904 1 2 cbr 500 ------- 0 0.0 2.0 107 107
+ 1.56 0 1 cbr 500 ------- 0 0.0 2.0 112 112
- 1.56 0 1 cbr 500 ------- 0 0.0 2.0 112 112